                         Program Version 6.0.1  -  RELEASE   -
|  1> ! Opt B3LYP D4 def2-TZVP TightSCF TightOpt CPCM(water)
|  2>
|  3> %maxcore 5000
|  4>
|  5> %pal
|  6> nprocs 6
|  7> end
|  8>
|  9> * xyz 0 1
| 10> N          0.18740        1.06590        0.44330
| 11> C          1.07850        1.91900       -0.34400
| 12> C          0.50280        2.31020       -1.72110
| 13> C          0.34610        1.16150       -2.73400
| 14> C         -0.73620        0.18310       -2.38020
| 15> O         -0.44210       -1.12230       -2.22650
| 16> O         -1.88990        0.56120       -2.25170
| 17> H          0.58650        0.96060        1.40410
| 18> H         -0.76020        1.50160        0.51970
| 19> H          1.24500        2.86230        0.22270
| 20> H          2.06570        1.42190       -0.46960
| 21> H          1.22470        3.02870       -2.16750
| 22> H         -0.46350        2.84580       -1.59590
| 23> H          1.31900        0.63650       -2.85030
| 24> H          0.07640        1.60370       -3.71750
| 25> H          0.12070        0.11230        0.02810
| 26> *
| 27>
| 28>                          ****END OF INPUT****
 Total Charge           Charge          ....    0
 Multiplicity           Mult            ....    1
 Number of Electrons    NEL             ....   56
Dispersion correction           -0.019561043
FINAL SINGLE POINT ENERGY      -363.026270170812
Dispersion correction             ... done (  0.0 sec)
Dispersion correction           -0.020377610
FINAL SINGLE POINT ENERGY      -363.038799679776
Dispersion correction             ... done (  0.0 sec)
Dispersion correction           -0.020743809
FINAL SINGLE POINT ENERGY      -363.040318737927
Dispersion correction             ... done (  0.0 sec)
FINAL SINGLE POINT ENERGY      -363.043092855576
FINAL SINGLE POINT ENERGY      -363.044686055511
FINAL SINGLE POINT ENERGY      -363.046391318137
FINAL SINGLE POINT ENERGY      -363.048900403038
FINAL SINGLE POINT ENERGY      -363.050591869987
FINAL SINGLE POINT ENERGY      -363.051551407014
FINAL SINGLE POINT ENERGY      -363.052149151417
FINAL SINGLE POINT ENERGY      -363.052660338224
FINAL SINGLE POINT ENERGY      -363.052682304680
FINAL SINGLE POINT ENERGY      -363.052685046042
FINAL SINGLE POINT ENERGY      -363.052686277603
FINAL SINGLE POINT ENERGY      -363.052686668972
FINAL SINGLE POINT ENERGY      -363.052686819454
FINAL SINGLE POINT ENERGY      -363.052686887065
Dispersion correction             ... done (  0.0 sec)
Dispersion correction           -0.019628445
FINAL SINGLE POINT ENERGY      -363.052686837188
Dispersion correction             ... done (  0.0 sec)
Dispersion correction           -0.019628632
FINAL SINGLE POINT ENERGY      -363.052686793962
Dispersion correction             ... done (  0.0 sec)
                    ***********************HURRAY********************

CARTESIAN COORDINATES (ANGSTROEM)
---------------------------------
  N      0.291920    1.058153    0.496063
  C      1.171827    1.898496   -0.372105
  C      0.438260    2.327525   -1.636788
  C      0.256502    1.244436   -2.709380
  C     -0.788608    0.140755   -2.478704
  O     -1.017307   -0.249224   -1.283308
  O     -1.336745   -0.345132   -3.484758
  H      0.826471    0.519628    1.173900
  H     -0.369592    1.635037    1.012609
  H      1.497192    2.761080    0.206721
  H      2.046998    1.297101   -0.617396
  H      1.026419    3.135298   -2.078092
  H     -0.527634    2.766474   -1.366835
  H      1.214296    0.734687   -2.868011
  H      0.008908    1.723224   -3.657178
  H     -0.278008    0.404461   -0.177139

 Multiplicity           Mult            ....    1
 Number of Electrons    NEL             ....   56
 Basis Dimension        Dim             ....  271

ORBITAL ENERGIES
----------------

  NO   OCC          E(Eh)            E(eV)
   0   2.0000     -19.079168      -519.1706
   1   2.0000     -19.066463      -518.8248
   2   2.0000     -14.381638      -391.3443
   3   2.0000     -10.259544      -279.1764
   4   2.0000     -10.214550      -277.9520
   5   2.0000     -10.173408      -276.8325
   6   2.0000     -10.163110      -276.5523
   7   2.0000      -1.034039       -28.1376
   8   2.0000      -0.963556       -26.2197
   9   2.0000      -0.939947       -25.5772
  10   2.0000      -0.787052       -21.4168
  11   2.0000      -0.698640       -19.0110
  12   2.0000      -0.614162       -16.7122
  13   2.0000      -0.556046       -15.1308
  14   2.0000      -0.548492       -14.9252
  15   2.0000      -0.504113       -13.7176
  16   2.0000      -0.472339       -12.8530
  17   2.0000      -0.462495       -12.5851
  18   2.0000      -0.431615       -11.7448
  19   2.0000      -0.425838       -11.5876
  20   2.0000      -0.397362       -10.8128
  21   2.0000      -0.380030       -10.3411
  22   2.0000      -0.369493       -10.0544
  23   2.0000      -0.354287        -9.6406
  24   2.0000      -0.339730        -9.2445
  25   2.0000      -0.266286        -7.2460
  26   2.0000      -0.257737        -7.0134
  27   2.0000      -0.239293        -6.5115
  28   0.0000       0.028388         0.7725
  29   0.0000       0.040063         1.0902
  30   0.0000       0.063882         1.7383
  31   0.0000       0.071085         1.9343
  32   0.0000       0.083346         2.2679

MULLIKEN ATOMIC CHARGES
-----------------------
   0 N :   -0.303094
   1 C :   -0.141003
   2 C :   -0.189991
   3 C :   -0.228723
   4 C :    0.268224
   5 O :   -0.559624
   6 O :   -0.529904
   7 H :    0.304332
   8 H :    0.301545
   9 H :    0.151653
  10 H :    0.149438
  11 H :    0.122628
  12 H :    0.120145
  13 H :    0.113876
  14 H :    0.105536
  15 H :    0.314964
Sum of atomic charges:   -0.0000000

LOEWDIN ATOMIC CHARGES
----------------------
   0 N :    0.134012
   1 C :   -0.253765
   2 C :   -0.259485
   3 C :   -0.246329
   4 C :   -0.635612
   5 O :   -0.096785
   6 O :   -0.096283
   7 H :    0.203236
   8 H :    0.205046
   9 H :    0.140613
  10 H :    0.143963
  11 H :    0.150483
  12 H :    0.144280
  13 H :    0.151406
  14 H :    0.143552
  15 H :    0.171668

  Mayer bond orders larger than 0.100000
B(  0-N ,  1-C ) :   0.9041 B(  0-N ,  7-H ) :   0.8892 B(  0-N ,  8-H ) :   0.8913
B(  0-N , 15-H ) :   0.7121 B(  1-C ,  2-C ) :   0.9737 B(  1-C ,  9-H ) :   0.9688
B(  1-C , 10-H ) :   0.9653 B(  2-C ,  3-C ) :   0.9331 B(  2-C , 11-H ) :   0.9562
B(  2-C , 12-H ) :   0.9678 B(  3-C ,  4-C ) :   0.9591 B(  3-C , 13-H ) :   0.9390
B(  3-C , 14-H ) :   0.9595 B(  4-C ,  5-O ) :   1.5665 B(  4-C ,  6-O ) :   1.9043
B(  5-O , 15-H ) :   0.2525

Dispersion correction           -0.019628497
FINAL SINGLE POINT ENERGY      -363.052686857653

DIPOLE MOMENT
-------------

Method             : SCF
Type of density    : Electron Density
Multiplicity       :   1
Irrep              :   0
Energy             :  -363.0330583604783783 Eh
Relativity type    :
Basis              : AO
                                X                 Y                 Z
Electronic contribution:     -3.387064319      -3.955078163      -1.378433422
Nuclear contribution   :      6.319809813       6.828670773       5.580386716
                        -----------------------------------------
Total Dipole Moment    :      2.932745494       2.873592610       4.201953294
                        -----------------------------------------
Magnitude (a.u.)       :      5.874941881
Magnitude (Debye)      :     14.932915523

Rotational constants in cm-1:             0.159529             0.060089             0.046251
Rotational constants in MHz :          4782.572530          1801.433040          1386.563595

                             ****ORCA TERMINATED NORMALLY****
TOTAL RUN TIME: 0 days 0 hours 8 minutes 21 seconds 640 msec
