                         Program Version 6.0.1  -  RELEASE   -
|  1> ! Opt B3LYP D4 def2-TZVP TightSCF TightOpt CPCM(water)
|  2>
|  3> %maxcore 3000
|  4>
|  5> %pal
|  6> nprocs 30
|  7> end
|  8>
|  9> * xyz 0 1
| 10> N          1.28140       -0.07040        0.38350
| 11> C          2.73350       -0.02580        0.21490
| 12> C          3.10740        0.41630       -1.20620
| 13> C          4.63080        0.46390       -1.38570
| 14> C          5.03820        0.89430       -2.76990
| 15> O          4.11820        1.19310       -3.70930
| 16> O          6.22360        0.97470       -3.04830
| 17> H          0.87120        0.87820        0.22270
| 18> H          0.86210       -0.75450       -0.28760
| 19> H          3.15620       -1.03590        0.41360
| 20> H          3.16580        0.68710        0.95210
| 21> H          2.68250        1.42650       -1.39690
| 22> H          2.67290       -0.30120       -1.93690
| 23> H          5.05410       -0.54570       -1.19220
| 24> H          5.06370        1.17930       -0.65300
| 25> H          1.05900       -0.37410        1.35900
| 26> *
| 27>
| 28>                          ****END OF INPUT****
 Total Charge           Charge          ....    0
 Multiplicity           Mult            ....    1
 Number of Electrons    NEL             ....   56
Dispersion correction           -0.017505448
FINAL SINGLE POINT ENERGY      -363.024115894992
Dispersion correction             ... done (  0.0 sec)
Dispersion correction           -0.017483854
FINAL SINGLE POINT ENERGY      -363.036657958370
Dispersion correction             ... done (  0.0 sec)
Dispersion correction           -0.017476973
FINAL SINGLE POINT ENERGY      -363.039422661418
Dispersion correction             ... done (  0.0 sec)
FINAL SINGLE POINT ENERGY      -363.036511062637
FINAL SINGLE POINT ENERGY      -363.039853583499
FINAL SINGLE POINT ENERGY      -363.039891734212
FINAL SINGLE POINT ENERGY      -363.039898032012
FINAL SINGLE POINT ENERGY      -363.039902847760
FINAL SINGLE POINT ENERGY      -363.039905067708
FINAL SINGLE POINT ENERGY      -363.039907533038
Dispersion correction             ... done (  0.0 sec)
Dispersion correction           -0.017446571
FINAL SINGLE POINT ENERGY      -363.039908374863
Dispersion correction             ... done (  0.0 sec)
Dispersion correction           -0.017447175
FINAL SINGLE POINT ENERGY      -363.039908664259
Dispersion correction             ... done (  0.0 sec)
                    ***********************HURRAY********************

CARTESIAN COORDINATES (ANGSTROEM)
---------------------------------
  N      1.274484   -0.079772    0.411096
  C      2.763326   -0.024061    0.201664
  C      3.098660    0.411977   -1.212154
  C      4.606632    0.481863   -1.420149
  C      5.060268    0.911836   -2.831315
  O      4.179758    1.233057   -3.667523
  O      6.303971    0.909095   -3.026422
  H      0.843610    0.835520    0.265444
  H      0.831476   -0.734446   -0.236318
  H      3.141347   -1.021423    0.420921
  H      3.150853    0.670580    0.945366
  H      2.651025    1.389061   -1.409474
  H      2.657194   -0.290501   -1.923967
  H      5.063505   -0.489500   -1.208175
  H      5.051844    1.184059   -0.707829
  H      1.042647   -0.381546    1.358635

 Multiplicity           Mult            ....    1
 Number of Electrons    NEL             ....   56
 Basis Dimension        Dim             ....  271

ORBITAL ENERGIES
----------------

  NO   OCC          E(Eh)            E(eV)
   0   2.0000     -19.051952      -518.4300
   1   2.0000     -19.048576      -518.3381
   2   2.0000     -14.426157      -392.5557
   3   2.0000     -10.240472      -278.6574
   4   2.0000     -10.225117      -278.2396
   5   2.0000     -10.169623      -276.7295
   6   2.0000     -10.156369      -276.3689
   7   2.0000      -1.010300       -27.4917
   8   2.0000      -0.994321       -27.0569
   9   2.0000      -0.921046       -25.0629
  10   2.0000      -0.792568       -21.5669
  11   2.0000      -0.700065       -19.0497
  12   2.0000      -0.618828       -16.8392
  13   2.0000      -0.577673       -15.7193
  14   2.0000      -0.560308       -15.2468
  15   2.0000      -0.507456       -13.8086
  16   2.0000      -0.470075       -12.7914
  17   2.0000      -0.469088       -12.7645
  18   2.0000      -0.423421       -11.5219
  19   2.0000      -0.412566       -11.2265
  20   2.0000      -0.405649       -11.0383
  21   2.0000      -0.376098       -10.2342
  22   2.0000      -0.363092        -9.8802
  23   2.0000      -0.352382        -9.5888
  24   2.0000      -0.330419        -8.9912
  25   2.0000      -0.243988        -6.6393
  26   2.0000      -0.232300        -6.3212
  27   2.0000      -0.224088        -6.0977
  28   0.0000       0.015495         0.4216
  29   0.0000       0.049340         1.3426
  30   0.0000       0.058137         1.5820
  31   0.0000       0.070441         1.9168
  32   0.0000       0.073752         2.0069

MULLIKEN ATOMIC CHARGES
-----------------------
   0 N :   -0.252351
   1 C :   -0.118671
   2 C :   -0.171857
   3 C :   -0.266927
   4 C :    0.249077
   5 O :   -0.568741
   6 O :   -0.587137
   7 H :    0.327013
   8 H :    0.326689
   9 H :    0.158373
  10 H :    0.158438
  11 H :    0.103065
  12 H :    0.104583
  13 H :    0.102432
  14 H :    0.104900
  15 H :    0.331111
Sum of atomic charges:    0.0000000

LOEWDIN ATOMIC CHARGES
----------------------
   0 N :    0.191949
   1 C :   -0.234357
   2 C :   -0.267999
   3 C :   -0.252306
   4 C :   -0.679546
   5 O :   -0.135446
   6 O :   -0.155271
   7 H :    0.223770
   8 H :    0.223503
   9 H :    0.147278
  10 H :    0.147371
  11 H :    0.140364
  12 H :    0.140623
  13 H :    0.142332
  14 H :    0.143838
  15 H :    0.223896

  Mayer bond orders larger than 0.100000
B(  0-N ,  1-C ) :   0.8925 B(  0-N ,  7-H ) :   0.8773 B(  0-N ,  8-H ) :   0.8775
B(  0-N , 15-H ) :   0.8779 B(  1-C ,  2-C ) :   0.9632 B(  1-C ,  9-H ) :   0.9589
B(  1-C , 10-H ) :   0.9598 B(  2-C ,  3-C ) :   0.9470 B(  2-C , 11-H ) :   0.9632
B(  2-C , 12-H ) :   0.9635 B(  3-C ,  4-C ) :   0.9301 B(  3-C ,  5-O ) :  -0.1046
B(  3-C , 13-H ) :   0.9505 B(  3-C , 14-H ) :   0.9474 B(  4-C ,  5-O ) :   1.8326
B(  4-C ,  6-O ) :   1.8374

Dispersion correction           -0.017447194
FINAL SINGLE POINT ENERGY      -363.039908689180

DIPOLE MOMENT
-------------

Method             : SCF
Type of density    : Electron Density
Multiplicity       :   1
Irrep              :   0
Energy             :  -363.0224614954793196 Eh
Relativity type    :
Basis              : AO
                                X                 Y                 Z
Electronic contribution:      2.264290237       1.201467302      -3.900434591
Nuclear contribution   :     -9.534167532      -3.460526178      11.297500918
                        -----------------------------------------
Total Dipole Moment    :     -7.269877295      -2.259058876       7.397066327
                        -----------------------------------------
Magnitude (a.u.)       :     10.614662177
Magnitude (Debye)      :     26.980327093

Rotational constants in cm-1:             0.269317             0.034772             0.031496
Rotational constants in MHz :          8073.911709          1042.428682           944.219190

                             ****ORCA TERMINATED NORMALLY****
TOTAL RUN TIME: 0 days 0 hours 2 minutes 23 seconds 714 msec
