                         Program Version 6.0.1  -  RELEASE   -
|  1> ! Opt B3LYP D4 def2-TZVP TightSCF TightOpt CPCM(water)
|  2>
|  3> %maxcore 3000
|  4>
|  5> %pal
|  6> nprocs 6
|  7> end
|  8>
|  9> * xyz 0 1
| 10> C         -0.51430        0.60220       -2.52510
| 11> C         -1.05520       -0.10250       -1.30610
| 12> O         -2.14580        0.39460       -0.69290
| 13> O         -0.54400       -1.12490       -0.87680
| 14> C          0.73760       -0.04320       -3.14880
| 15> N          1.90870        0.05160       -2.27300
| 16> H         -0.28340        1.65760       -2.26500
| 17> H         -1.32140        0.60360       -3.28870
| 18> H          0.96510        0.49600       -4.09520
| 19> H          0.53280       -1.10640       -3.40450
| 20> H          2.11240        1.05390       -2.05460
| 21> H          1.76390       -0.47700       -1.38490
| 22> H          2.73450       -0.35720       -2.76700
| 23> *
| 24>
| 25>                          ****END OF INPUT****
 Total Charge           Charge          ....    0
 Multiplicity           Mult            ....    1
 Number of Electrons    NEL             ....   48
Dispersion correction           -0.014102473
FINAL SINGLE POINT ENERGY      -323.726367972121
Dispersion correction             ... done (  0.0 sec)
Dispersion correction           -0.014391411
FINAL SINGLE POINT ENERGY      -323.739599252967
Dispersion correction             ... done (  0.0 sec)
Dispersion correction           -0.014557837
FINAL SINGLE POINT ENERGY      -323.742524199438
Dispersion correction             ... done (  0.0 sec)
FINAL SINGLE POINT ENERGY      -323.743925852738
FINAL SINGLE POINT ENERGY      -323.745305775269
FINAL SINGLE POINT ENERGY      -323.746046145272
FINAL SINGLE POINT ENERGY      -323.746356363574
FINAL SINGLE POINT ENERGY      -323.746714034430
FINAL SINGLE POINT ENERGY      -323.746960815562
FINAL SINGLE POINT ENERGY      -323.747091467718
FINAL SINGLE POINT ENERGY      -323.747167596879
FINAL SINGLE POINT ENERGY      -323.747188892748
FINAL SINGLE POINT ENERGY      -323.747200984145
FINAL SINGLE POINT ENERGY      -323.747204131896
Dispersion correction             ... done (  0.0 sec)
Dispersion correction           -0.014544319
FINAL SINGLE POINT ENERGY      -323.747205470274
Dispersion correction             ... done (  0.0 sec)
Dispersion correction           -0.014546123
FINAL SINGLE POINT ENERGY      -323.747205868222
Dispersion correction             ... done (  0.0 sec)
                    ***********************HURRAY********************

CARTESIAN COORDINATES (ANGSTROEM)
---------------------------------
  C     -0.521442    0.634826   -2.549411
  C     -0.948716   -0.092210   -1.256850
  O     -2.149173   -0.044981   -0.936473
  O     -0.027372   -0.665334   -0.587181
  C      0.696394    0.035780   -3.240752
  N      1.832941   -0.028551   -2.267279
  H     -0.318880    1.678492   -2.285175
  H     -1.357467    0.642818   -3.247585
  H      1.005751    0.620142   -4.104518
  H      0.503404   -0.987911   -3.558057
  H      2.235634    0.891480   -2.094311
  H      1.362652   -0.386192   -1.378807
  H      2.577173   -0.650060   -2.576199

 Multiplicity           Mult            ....    1
 Number of Electrons    NEL             ....   48
 Basis Dimension        Dim             ....  228

ORBITAL ENERGIES
----------------

  NO   OCC          E(Eh)            E(eV)
   0   2.0000     -19.076894      -519.1087
   1   2.0000     -19.068024      -518.8673
   2   2.0000     -14.394442      -391.6927
   3   2.0000     -10.260929      -279.2141
   4   2.0000     -10.219953      -278.0991
   5   2.0000     -10.171569      -276.7825
   6   2.0000      -1.034116       -28.1397
   7   2.0000      -0.972928       -26.4747
   8   2.0000      -0.941159       -25.6102
   9   2.0000      -0.768173       -20.9030
  10   2.0000      -0.649355       -17.6698
  11   2.0000      -0.561780       -15.2868
  12   2.0000      -0.558932       -15.2093
  13   2.0000      -0.514478       -13.9997
  14   2.0000      -0.473807       -12.8929
  15   2.0000      -0.434928       -11.8350
  16   2.0000      -0.429456       -11.6861
  17   2.0000      -0.422106       -11.4861
  18   2.0000      -0.394412       -10.7325
  19   2.0000      -0.377394       -10.2694
  20   2.0000      -0.354973        -9.6593
  21   2.0000      -0.265384        -7.2215
  22   2.0000      -0.254462        -6.9243
  23   2.0000      -0.244031        -6.6404
  24   0.0000       0.024511         0.6670
  25   0.0000       0.046470         1.2645
  26   0.0000       0.066105         1.7988
  27   0.0000       0.074589         2.0297
  28   0.0000       0.094728         2.5777

MULLIKEN ATOMIC CHARGES
-----------------------
   0 C :   -0.249581
   1 C :    0.270037
   2 O :   -0.529399
   3 O :   -0.568264
   4 C :   -0.123778
   5 N :   -0.282039
   6 H :    0.126747
   7 H :    0.118559
   8 H :    0.153956
   9 H :    0.153426
  10 H :    0.307427
  11 H :    0.310312
  12 H :    0.312596
Sum of atomic charges:    0.0000000

LOEWDIN ATOMIC CHARGES
----------------------
   0 C :   -0.246942
   1 C :   -0.648243
   2 O :   -0.094512
   3 O :   -0.119059
   4 C :   -0.243102
   5 N :    0.152086
   6 H :    0.153357
   7 H :    0.149845
   8 H :    0.140948
   9 H :    0.145835
  10 H :    0.210417
  11 H :    0.190510
  12 H :    0.208860

  Mayer bond orders larger than 0.100000
B(  0-C ,  1-C ) :   0.9536 B(  0-C ,  4-C ) :   0.9546 B(  0-C ,  6-H ) :   0.9395
B(  0-C ,  7-H ) :   0.9569 B(  1-C ,  2-O ) :   1.8902 B(  1-C ,  3-O ) :   1.6088
B(  3-O , 11-H ) :   0.1965 B(  4-C ,  5-N ) :   0.8984 B(  4-C ,  8-H ) :   0.9622
B(  4-C ,  9-H ) :   0.9638 B(  5-N , 10-H ) :   0.8866 B(  5-N , 11-H ) :   0.7589
B(  5-N , 12-H ) :   0.8848

Dispersion correction           -0.014546279
FINAL SINGLE POINT ENERGY      -323.747205911223

DIPOLE MOMENT
-------------

Method             : SCF
Type of density    : Electron Density
Multiplicity       :   1
Irrep              :   0
Energy             :  -323.7326596327081347 Eh
Relativity type    :
Basis              : AO
                                X                 Y                 Z
Electronic contribution:     -1.821726475      -0.990253030       3.036438030
Nuclear contribution   :      6.532576313       1.908143505      -6.220112996
                        -----------------------------------------
Total Dipole Moment    :      4.710849839       0.917890474      -3.183674967
                        -----------------------------------------
Magnitude (a.u.)       :      5.759376305
Magnitude (Debye)      :     14.639171173

Rotational constants in cm-1:             0.241977             0.085215             0.067073
Rotational constants in MHz :          7254.298603          2554.682310          2010.802747

                             ****ORCA TERMINATED NORMALLY****
TOTAL RUN TIME: 0 days 0 hours 4 minutes 16 seconds 596 msec
