                         Program Version 6.0.1  -  RELEASE   -
|  1> ! SP B3LYP D4 def2-TZVP TightSCF CPCM(water)
|  2>
|  3> %maxcore 5000
|  4>
|  5> %pal
|  6> nprocs 20
|  7> end
|  8>
|  9> %geom
| 10>     MaxIter 500
| 11> end
| 12>
| 13> * xyz 0 1
| 14> N            1.23644666396925        0.33354552788135       -0.44714877170922
| 15> C            2.59658435278615        0.04752144642728        0.02573966613823
| 16> C            3.57592902521700        1.05885022539765       -0.56115799865386
| 17> C            4.97366487485192        0.88348393476616        0.04117202422891
| 18> C            5.91503843387405        1.89690247937224       -0.58989111231680
| 19> O            5.99524854156891        3.04569201380616       -0.08472375717412
| 20> O            6.54931765144376        1.56578694918231       -1.62434308487605
| 21> H            0.95021559914882        1.29433470719647       -0.17002185497868
| 22> H            1.19018530930588        0.26083204051947       -1.48149990100900
| 23> H            2.88605553602166       -0.95781447029741       -0.27977416346545
| 24> H            2.62980126258327        0.10015068891310        1.11448746519413
| 25> H            3.23220167588116        2.07201514373299       -0.34870663302360
| 26> H            3.64050833036710        0.93328562745540       -1.64325136342649
| 27> H            5.34810669256839       -0.12025763291015       -0.16114383996559
| 28> H            4.93762836574815        1.04933436268030        1.11818765927191
| 29> H            0.51615171451941       -0.32737116463123       -0.05403266191768
| 30> O            0.32717708401079        2.85130954180470        0.33567398545996
| 31> H            0.43967536524266        3.01216777953199        1.27685472123881
| 32> H            0.87284727582391        3.52726036664299       -0.11104121771576
| 33> O            2.22321467356389        4.62394623720436       -0.48131227060964
| 34> H            2.77931811955892        4.46053377391703        0.30448138685965
| 35> H            2.85761787425911        4.75704028827055       -1.20096991408142
| 36> H           -1.06016913204190       -1.50229386157430       -0.63737925893710
| 37> O           -0.92163858664002       -1.13109636245740        0.25603142385074
| 38> H           -1.49715398231442       -0.34708011153202        0.30445996368387
| 39> O            6.38309254912662        3.37837730612366       -3.72346831935319
| 40> H            7.26208514580947        3.62528176422261       -4.02644123837395
| 41> H            6.51603853566207        2.72609652224860       -3.01076100746318
| 42> H            1.82143623172275       -0.29909124882546       -3.64411372394058
| 43> O            1.00041216903752        0.01231645907721       -3.21753916616453
| 44> H            0.70706272760362        0.78040281974243       -3.71598919142020
| 45> H            5.05369036711727        4.43552640335707       -2.78920451252039
| 46> O            4.63525631099311        4.72786106415385       -1.96374754102145
| 47> H            5.14958479481758        4.29413953827017       -1.26513746423347
| 48> H           -1.32462546053060        1.99509942833685        0.10559875186282
| 49> O           -2.09267103523466        1.40294232245779        0.03858743103961
| 50> H           -2.62942438303069        1.73407539830784       -0.68575385094941
| 51> H            6.42640775962953       -1.27973622244751       -2.92829387562206
| 52> O            5.61535826271838       -0.76668047239672       -2.85776194205661
| 53> H            5.88717910639940        0.08324572578161       -2.46617649230537
| 54> H            2.74137663158422        0.23603314239181        4.11594138067922
| 55> O            2.94413124299740       -0.31517302686784        3.35463108579903
| 56> H            2.64107302607637       -1.20398113410203        3.56419486499605
| 57> H            3.69033259988567       -0.24375388957356       -5.24115393281884
| 58> O            3.35136357295672       -0.66093592963744       -4.44428619548759
| 59> H            4.11862559830309       -0.79044506199171       -3.85937803936231
| 60> H           -0.24014436997461       -1.26171238454068       -2.75110694178589
| 61> O           -0.84484452395523       -1.93417655290131       -2.38448517140310
| 62> H           -0.44909109081610       -2.78701806862334       -2.58110495529489
| 63> H            4.70000133048562        3.57878576961646        1.03461970248919
| 64> O            3.93951319425289        3.88962566906730        1.56168011898015
| 65> H            4.29719649754492        4.43529438878075        2.26708089282093
| 66> O            8.52065614300012       -0.45391862706605       -1.89201862996395
| 67> H            9.38632583885392       -0.18857431001019       -1.56875930921664
| 68> H            7.93745376325686        0.31139424742625       -1.76903847406283
| 69> O            8.49209898448193        3.87960400658117        0.90007360846482
| 70> H            8.48036554219422        4.84260026488916        0.90309652432971
| 71> H            7.63597149770238        3.60306706248568        0.53267655252056
| 72> *
| 73>
| 74>                          ****END OF INPUT****

CARTESIAN COORDINATES (ANGSTROEM)
---------------------------------
  N      1.236447    0.333546   -0.447149
  C      2.596584    0.047521    0.025740
  C      3.575929    1.058850   -0.561158
  C      4.973665    0.883484    0.041172
  C      5.915038    1.896902   -0.589891
  O      5.995249    3.045692   -0.084724
  O      6.549318    1.565787   -1.624343
  H      0.950216    1.294335   -0.170022
  H      1.190185    0.260832   -1.481500
  H      2.886056   -0.957814   -0.279774
  H      2.629801    0.100151    1.114487
  H      3.232202    2.072015   -0.348707
  H      3.640508    0.933286   -1.643251
  H      5.348107   -0.120258   -0.161144
  H      4.937628    1.049334    1.118188
  H      0.516152   -0.327371   -0.054033
  O      0.327177    2.851310    0.335674
  H      0.439675    3.012168    1.276855
  H      0.872847    3.527260   -0.111041
  O      2.223215    4.623946   -0.481312
  H      2.779318    4.460534    0.304481
  H      2.857618    4.757040   -1.200970
  H     -1.060169   -1.502294   -0.637379
  O     -0.921639   -1.131096    0.256031
  H     -1.497154   -0.347080    0.304460
  O      6.383093    3.378377   -3.723468
  H      7.262085    3.625282   -4.026441
  H      6.516039    2.726097   -3.010761
  H      1.821436   -0.299091   -3.644114
  O      1.000412    0.012316   -3.217539
  H      0.707063    0.780403   -3.715989
  H      5.053690    4.435526   -2.789205
  O      4.635256    4.727861   -1.963748
  H      5.149585    4.294140   -1.265137
  H     -1.324625    1.995099    0.105599
  O     -2.092671    1.402942    0.038587
  H     -2.629424    1.734075   -0.685754
  H      6.426408   -1.279736   -2.928294
  O      5.615358   -0.766680   -2.857762
  H      5.887179    0.083246   -2.466176
  H      2.741377    0.236033    4.115941
  O      2.944131   -0.315173    3.354631
  H      2.641073   -1.203981    3.564195
  H      3.690333   -0.243754   -5.241154
  O      3.351364   -0.660936   -4.444286
  H      4.118626   -0.790445   -3.859378
  H     -0.240144   -1.261712   -2.751107
  O     -0.844845   -1.934177   -2.384485
  H     -0.449091   -2.787018   -2.581105
  H      4.700001    3.578786    1.034620
  O      3.939513    3.889626    1.561680
  H      4.297196    4.435294    2.267081
  O      8.520656   -0.453919   -1.892019
  H      9.386326   -0.188574   -1.568759
  H      7.937454    0.311394   -1.769038
  O      8.492099    3.879604    0.900074
  H      8.480366    4.842600    0.903097
  H      7.635971    3.603067    0.532677

 Total Charge           Charge          ....    0
 Multiplicity           Mult            ....    1
 Number of Electrons    NEL             ....  196
 Basis Dimension        Dim             ....  873

ORBITAL ENERGIES
----------------

  NO   OCC          E(Eh)            E(eV)
   0   2.0000     -19.136916      -520.7420
   1   2.0000     -19.136560      -520.7323
   2   2.0000     -19.123056      -520.3648
   3   2.0000     -19.123032      -520.3642
   4   2.0000     -19.122986      -520.3629
   5   2.0000     -19.122757      -520.3567
   6   2.0000     -19.120726      -520.3014
   7   2.0000     -19.119714      -520.2739
   8   2.0000     -19.115230      -520.1518
   9   2.0000     -19.112760      -520.0846
  10   2.0000     -19.111598      -520.0530
  11   2.0000     -19.109629      -519.9994
  12   2.0000     -19.108818      -519.9774
  13   2.0000     -19.105449      -519.8857
  14   2.0000     -19.102213      -519.7976
  15   2.0000     -19.100493      -519.7508
  16   2.0000     -14.363758      -390.8577
  17   2.0000     -10.283639      -279.8320
  18   2.0000     -10.203441      -277.6497
  19   2.0000     -10.172024      -276.7948
  20   2.0000     -10.168472      -276.6982
  21   2.0000      -1.067180       -29.0394
  22   2.0000      -1.027924       -27.9712
  23   2.0000      -1.026873       -27.9426
  24   2.0000      -1.014016       -27.5928
  25   2.0000      -1.012173       -27.5426
  26   2.0000      -1.008977       -27.4557
  27   2.0000      -1.008286       -27.4369
  28   2.0000      -1.007399       -27.4127
  29   2.0000      -1.004188       -27.3253
  30   2.0000      -1.002406       -27.2769
  31   2.0000      -0.996692       -27.1214
  32   2.0000      -0.996339       -27.1118
  33   2.0000      -0.995332       -27.0844
  34   2.0000      -0.991708       -26.9857
  35   2.0000      -0.988487       -26.8981
  36   2.0000      -0.969791       -26.3894
  37   2.0000      -0.950881       -25.8748
  38   2.0000      -0.793366       -21.5886
  39   2.0000      -0.699532       -19.0352
  40   2.0000      -0.613637       -16.6979
  41   2.0000      -0.555414       -15.1136
  42   2.0000      -0.553432       -15.0597
  43   2.0000      -0.548129       -14.9153
  44   2.0000      -0.546054       -14.8589
  45   2.0000      -0.534578       -14.5466
  46   2.0000      -0.534323       -14.5397
  47   2.0000      -0.533325       -14.5125
  48   2.0000      -0.532455       -14.4888
  49   2.0000      -0.531412       -14.4605
  50   2.0000      -0.530330       -14.4310
  51   2.0000      -0.527543       -14.3552
  52   2.0000      -0.526167       -14.3177
  53   2.0000      -0.523353       -14.2412
  54   2.0000      -0.522930       -14.2296
  55   2.0000      -0.520695       -14.1688
  56   2.0000      -0.513645       -13.9770
  57   2.0000      -0.505807       -13.7637
  58   2.0000      -0.478315       -13.0156
  59   2.0000      -0.475457       -12.9378
  60   2.0000      -0.451755       -12.2929
  61   2.0000      -0.447075       -12.1655
  62   2.0000      -0.435388       -11.8475
  63   2.0000      -0.430500       -11.7145
  64   2.0000      -0.424344       -11.5470
  65   2.0000      -0.417021       -11.3477
  66   2.0000      -0.412213       -11.2169
  67   2.0000      -0.400825       -10.9070
  68   2.0000      -0.396472       -10.7885
  69   2.0000      -0.394978       -10.7479
  70   2.0000      -0.389793       -10.6068
  71   2.0000      -0.385303       -10.4846
  72   2.0000      -0.383705       -10.4411
  73   2.0000      -0.377851       -10.2818
  74   2.0000      -0.374151       -10.1812
  75   2.0000      -0.372980       -10.1493
  76   2.0000      -0.370440       -10.0802
  77   2.0000      -0.366753        -9.9799
  78   2.0000      -0.363413        -9.8890
  79   2.0000      -0.356735        -9.7072
  80   2.0000      -0.347722        -9.4620
  81   2.0000      -0.335599        -9.1321
  82   2.0000      -0.326711        -8.8903
  83   2.0000      -0.320110        -8.7106
  84   2.0000      -0.319173        -8.6851
  85   2.0000      -0.318661        -8.6712
  86   2.0000      -0.317773        -8.6471
  87   2.0000      -0.316592        -8.6149
  88   2.0000      -0.314677        -8.5628
  89   2.0000      -0.313635        -8.5345
  90   2.0000      -0.309587        -8.4243
  91   2.0000      -0.307982        -8.3806
  92   2.0000      -0.306002        -8.3267
  93   2.0000      -0.304154        -8.2765
  94   2.0000      -0.303148        -8.2491
  95   2.0000      -0.293803        -7.9948
  96   2.0000      -0.275801        -7.5049
  97   2.0000      -0.272472        -7.4143
  98   0.0000       0.006859         0.1866
  99   0.0000       0.010778         0.2933
 100   0.0000       0.021722         0.5911
 101   0.0000       0.023117         0.6290
 102   0.0000       0.034349         0.9347

MULLIKEN ATOMIC CHARGES
-----------------------
   0 N :   -0.277361
   1 C :   -0.133567
   2 C :   -0.246225
   3 C :   -0.219183
   4 C :    0.538243
   5 O :   -0.646159
   6 O :   -0.645210
   7 H :    0.293046
   8 H :    0.296532
   9 H :    0.135020
  10 H :    0.160333
  11 H :    0.104898
  12 H :    0.111674
  13 H :    0.112032
  14 H :    0.116890
  15 H :    0.303368
  16 O :   -0.721945
  17 H :    0.372408
  18 H :    0.388967
  19 O :   -0.729850
  20 H :    0.358005
  21 H :    0.358360
  22 H :    0.360803
  23 O :   -0.718733
  24 H :    0.364845
  25 O :   -0.728173
  26 H :    0.355469
  27 H :    0.350017
  28 H :    0.393364
  29 O :   -0.725744
  30 H :    0.373884
  31 H :    0.357091
  32 O :   -0.725270
  33 H :    0.337424
  34 H :    0.366933
  35 O :   -0.723203
  36 H :    0.362385
  37 H :    0.355718
  38 O :   -0.716252
  39 H :    0.358728
  40 H :    0.360991
  41 O :   -0.704856
  42 H :    0.361890
  43 H :    0.362758
  44 O :   -0.732021
  45 H :    0.384111
  46 H :    0.367904
  47 O :   -0.721830
  48 H :    0.363242
  49 H :    0.358303
  50 O :   -0.714878
  51 H :    0.355445
  52 O :   -0.727859
  53 H :    0.350984
  54 H :    0.349045
  55 O :   -0.735802
  56 H :    0.349716
  57 H :    0.343296
Sum of atomic charges:    0.0000000

LOEWDIN ATOMIC CHARGES
----------------------
   0 N :    0.126480
   1 C :   -0.275815
   2 C :   -0.260332
   3 C :   -0.227802
   4 C :   -0.600372
   5 O :   -0.057402
   6 O :   -0.056624
   7 H :    0.176944
   8 H :    0.177363
   9 H :    0.141390
  10 H :    0.138380
  11 H :    0.135332
  12 H :    0.137294
  13 H :    0.141862
  14 H :    0.142951
  15 H :    0.174690
  16 O :   -0.257247
  17 H :    0.175884
  18 H :    0.147552
  19 O :   -0.317746
  20 H :    0.134644
  21 H :    0.141256
  22 H :    0.137828
  23 O :   -0.301809
  24 H :    0.141521
  25 O :   -0.325218
  26 H :    0.166998
  27 H :    0.139219
  28 H :    0.146066
  29 O :   -0.253751
  30 H :    0.176439
  31 H :    0.144450
  32 O :   -0.325776
  33 H :    0.139636
  34 H :    0.145282
  35 O :   -0.307527
  36 H :    0.170773
  37 H :    0.160829
  38 O :   -0.293009
  39 H :    0.140721
  40 H :    0.170779
  41 O :   -0.317059
  42 H :    0.171988
  43 H :    0.171223
  44 O :   -0.301035
  45 H :    0.143416
  46 H :    0.143618
  47 O :   -0.303769
  48 H :    0.170414
  49 H :    0.141031
  50 O :   -0.300229
  51 H :    0.168052
  52 O :   -0.349155
  53 H :    0.166364
  54 H :    0.142008
  55 O :   -0.363678
  56 H :    0.164956
  57 H :    0.139722

  Mayer bond orders larger than 0.100000
B(  0-N ,  1-C ) :   0.9120 B(  0-N ,  7-H ) :   0.8420 B(  0-N ,  8-H ) :   0.8434
B(  0-N , 15-H ) :   0.7990 B(  1-C ,  2-C ) :   0.9614 B(  1-C ,  9-H ) :   0.9661
B(  1-C , 10-H ) :   0.9651 B(  2-C ,  3-C ) :   0.9483 B(  2-C , 11-H ) :   0.9597
B(  2-C , 12-H ) :   0.9653 B(  3-C ,  4-C ) :   0.9372 B(  3-C , 13-H ) :   0.9566
B(  3-C , 14-H ) :   0.9514 B(  4-C ,  5-O ) :   1.4879 B(  4-C ,  6-O ) :   1.4660
B(  5-O , 49-H ) :   0.1098 B(  6-O , 39-H ) :   0.1047 B(  7-H , 16-O ) :   0.1043
B( 15-H , 23-O ) :   0.1518 B( 16-O , 17-H ) :   0.8656 B( 16-O , 18-H ) :   0.7954
B( 19-O , 20-H ) :   0.8215 B( 19-O , 21-H ) :   0.8428 B( 22-H , 23-O ) :   0.8228
B( 23-O , 24-H ) :   0.8354 B( 25-O , 26-H ) :   0.8783 B( 25-O , 27-H ) :   0.8161
B( 28-H , 29-O ) :   0.7900 B( 29-O , 30-H ) :   0.8642 B( 31-H , 32-O ) :   0.8471
B( 32-O , 33-H ) :   0.8430 B( 34-H , 35-O ) :   0.8331 B( 35-O , 36-H ) :   0.8747
B( 37-H , 38-O ) :   0.8731 B( 38-O , 39-H ) :   0.8111 B( 40-H , 41-O ) :   0.8773
B( 41-O , 42-H ) :   0.8768 B( 43-H , 44-O ) :   0.8738 B( 44-O , 45-H ) :   0.8143
B( 46-H , 47-O ) :   0.8251 B( 47-O , 48-H ) :   0.8743 B( 49-H , 50-O ) :   0.8014
B( 50-O , 51-H ) :   0.8772 B( 52-O , 53-H ) :   0.8828 B( 52-O , 54-H ) :   0.8427
B( 55-O , 56-H ) :   0.8861 B( 55-O , 57-H ) :   0.8438

Dispersion correction           -0.062184219
FINAL SINGLE POINT ENERGY     -1433.303899668362

DIPOLE MOMENT
-------------

Method             : SCF
Type of density    : Electron Density
Multiplicity       :   1
Irrep              :   0
Energy             : -1433.2417154490656230 Eh
Relativity type    :
Basis              : AO
                                X                 Y                 Z
Electronic contribution:      5.709813514       2.174086392      -0.251156461
Nuclear contribution   :     -9.057370741      -3.349153916       0.556016840
                        -----------------------------------------
Total Dipole Moment    :     -3.347557227      -1.175067524       0.304860380
                        -----------------------------------------
Magnitude (a.u.)       :      3.560879516
Magnitude (Debye)      :      9.051036431

Rotational constants in cm-1:             0.006866             0.003888             0.003362
Rotational constants in MHz :           205.836075           116.562307           100.787763

                             ****ORCA TERMINATED NORMALLY****
TOTAL RUN TIME: 0 days 0 hours 1 minutes 0 seconds 385 msec
