                         Program Version 6.0.1  -  RELEASE   -
|  1> ! SP B3LYP D4 def2-TZVP TightSCF CPCM(water)
|  2>
|  3> %maxcore 5000
|  4>
|  5> %pal
|  6> nprocs 30
|  7> end
|  8>
|  9> %geom
| 10>     MaxIter 500
| 11> end
| 12>
| 13> * xyz 0 1
| 14> H            1.27895744065181        0.33052433173812        0.19358274067616
| 15> C            0.24416947531218        0.12812386615980       -0.08139352067257
| 16> H            0.19085586519226        1.31585089551781       -1.82020152406558
| 17> H            0.19864210245566       -0.78907131268325       -0.66451843766238
| 18> N           -0.27971220649683        1.22605017907273       -0.90233256373909
| 19> H           -0.55282872376367       -1.04912985978062        1.54354523220270
| 20> C           -0.61237496712630       -0.02889236781897        1.16929722608787
| 21> O           -1.15835471262843        1.29385695688837        3.07049182570751
| 22> C           -0.21292032234435        0.81792652630500        2.36759002252790
| 23> H           -0.17577531460865        2.12855394356338       -0.41021605872604
| 24> O            0.98788364067758        0.98287715688744        2.65711413579978
| 25> H           -1.29619759093124        1.09554858883135       -1.08247905909489
| 26> H           -1.65910437428983        0.16370424567969        0.94150582891150
| 27> *
| 28>
| 29>                          ****END OF INPUT****

CARTESIAN COORDINATES (ANGSTROEM)
---------------------------------
  H      1.278957    0.330524    0.193583
  C      0.244169    0.128124   -0.081394
  H      0.190856    1.315851   -1.820202
  H      0.198642   -0.789071   -0.664518
  N     -0.279712    1.226050   -0.902333
  H     -0.552829   -1.049130    1.543545
  C     -0.612375   -0.028892    1.169297
  O     -1.158355    1.293857    3.070492
  C     -0.212920    0.817927    2.367590
  H     -0.175775    2.128554   -0.410216
  O      0.987884    0.982877    2.657114
  H     -1.296198    1.095549   -1.082479
  H     -1.659104    0.163704    0.941506

 Total Charge           Charge          ....    0
 Multiplicity           Mult            ....    1
 Number of Electrons    NEL             ....   48
 Basis Dimension        Dim             ....  228

ORBITAL ENERGIES
----------------

  NO   OCC          E(Eh)            E(eV)
   0   2.0000     -19.055617      -518.5297
   1   2.0000     -19.048381      -518.3328
   2   2.0000     -14.431190      -392.6926
   3   2.0000     -10.243311      -278.7347
   4   2.0000     -10.223301      -278.1902
   5   2.0000     -10.168469      -276.6981
   6   2.0000      -1.017019       -27.6745
   7   2.0000      -0.997671       -27.1480
   8   2.0000      -0.919079       -25.0094
   9   2.0000      -0.773551       -21.0494
  10   2.0000      -0.660931       -17.9848
  11   2.0000      -0.578635       -15.7455
  12   2.0000      -0.573489       -15.6054
  13   2.0000      -0.507604       -13.8126
  14   2.0000      -0.486731       -13.2446
  15   2.0000      -0.439858       -11.9691
  16   2.0000      -0.427041       -11.6204
  17   2.0000      -0.411378       -11.1942
  18   2.0000      -0.385548       -10.4913
  19   2.0000      -0.366405        -9.9704
  20   2.0000      -0.352069        -9.5803
  21   2.0000      -0.245259        -6.6738
  22   2.0000      -0.241544        -6.5727
  23   2.0000      -0.221579        -6.0295
  24   0.0000       0.013099         0.3564
  25   0.0000       0.051022         1.3884
  26   0.0000       0.067112         1.8262
  27   0.0000       0.071933         1.9574
  28   0.0000       0.078678         2.1409

MULLIKEN ATOMIC CHARGES
-----------------------
   0 H :    0.138900
   1 C :   -0.093884
   2 H :    0.338636
   3 H :    0.157302
   4 N :   -0.272790
   5 H :    0.128617
   6 C :   -0.209422
   7 O :   -0.598131
   8 C :    0.194804
   9 H :    0.332257
  10 O :   -0.549759
  11 H :    0.334302
  12 H :    0.099166
Sum of atomic charges:   -0.0000000

LOEWDIN ATOMIC CHARGES
----------------------
   0 H :    0.144328
   1 C :   -0.253660
   2 H :    0.232768
   3 H :    0.147207
   4 N :    0.188683
   5 H :    0.160004
   6 C :   -0.248815
   7 O :   -0.169395
   8 C :   -0.693007
   9 H :    0.232897
  10 O :   -0.120198
  11 H :    0.235233
  12 H :    0.143953

  Mayer bond orders larger than 0.100000
B(  0-H ,  1-C ) :   0.9501 B(  1-C ,  3-H ) :   0.9603 B(  1-C ,  4-N ) :   0.9009
B(  1-C ,  6-C ) :   0.9457 B(  2-H ,  4-N ) :   0.8693 B(  4-N ,  9-H ) :   0.8744
B(  4-N , 11-H ) :   0.8696 B(  5-H ,  6-C ) :   0.9370 B(  6-C ,  8-C ) :   0.9196
B(  6-C , 12-H ) :   0.9595 B(  7-O ,  8-C ) :   1.8295 B(  8-C , 10-O ) :   1.8476

Dispersion correction           -0.013793749
FINAL SINGLE POINT ENERGY      -323.732257310733

DIPOLE MOMENT
-------------

Method             : SCF
Type of density    : Electron Density
Multiplicity       :   1
Irrep              :   0
Energy             :  -323.7184635613055548 Eh
Relativity type    :
Basis              : AO
                                X                 Y                 Z
Electronic contribution:      0.289819324       1.587625700       2.651463939
Nuclear contribution   :     -0.734662927      -1.988198596      -9.971465275
                        -----------------------------------------
Total Dipole Moment    :     -0.444843603      -0.400572896      -7.320001337
                        -----------------------------------------
Magnitude (a.u.)       :      7.344437626
Magnitude (Debye)      :     18.668076869

Rotational constants in cm-1:             0.224119             0.071099             0.065398
Rotational constants in MHz :          6718.915903          2131.483966          1960.581024

                             ****ORCA TERMINATED NORMALLY****
TOTAL RUN TIME: 0 days 0 hours 0 minutes 12 seconds 892 msec
