                         Program Version 6.0.1  -  RELEASE   -
|  1> ! SP B3LYP D4 def2-TZVP TightSCF CPCM(water)
|  2>
|  3> %maxcore 5000
|  4>
|  5> %pal
|  6> nprocs 30
|  7> end
|  8>
|  9> %geom
| 10>     MaxIter 500
| 11> end
| 12>
| 13> * xyz 0 1
| 14> N           -0.73956256452989       -0.19467634372270        2.48811412888946
| 15> C           -0.75587308741843       -0.67149508550203        1.10043070375262
| 16> C            0.40462977461849       -0.02199709591834        0.35327123897693
| 17> C            0.20518683500517       -0.01031489819062       -1.15354995776363
| 18> C            0.46238002218226       -1.31652507783706       -1.86762639552651
| 19> O            0.66223491220690       -2.38281507167850       -1.22409524743554
| 20> O            0.44959038919511       -1.29424698890486       -3.12363201620814
| 21> H            0.15325962538743       -0.44831374941744        2.94648867540385
| 22> H           -0.80906333069797        0.84273668815603        2.46927129272544
| 23> H           -1.70389621426972       -0.39221449526096        0.63904869943379
| 24> H           -0.67823956371845       -1.75820192356693        1.07342130572674
| 25> H            1.33862931055163       -0.52850609528880        0.59085677101371
| 26> H            0.48950917708774        1.01467922809583        0.67560190449735
| 27> H           -0.82266741189115        0.26402510721318       -1.39204595505243
| 28> H            0.85864188624017        0.72485797271058       -1.62262151847862
| 29> H           -1.52389032033640       -0.59630764096720        3.04106006947343
| 30> *
| 31>
| 32>                          ****END OF INPUT****

CARTESIAN COORDINATES (ANGSTROEM)
---------------------------------
  N     -0.739563   -0.194676    2.488114
  C     -0.755873   -0.671495    1.100431
  C      0.404630   -0.021997    0.353271
  C      0.205187   -0.010315   -1.153550
  C      0.462380   -1.316525   -1.867626
  O      0.662235   -2.382815   -1.224095
  O      0.449590   -1.294247   -3.123632
  H      0.153260   -0.448314    2.946489
  H     -0.809063    0.842737    2.469271
  H     -1.703896   -0.392214    0.639049
  H     -0.678240   -1.758202    1.073421
  H      1.338629   -0.528506    0.590857
  H      0.489509    1.014679    0.675602
  H     -0.822667    0.264025   -1.392046
  H      0.858642    0.724858   -1.622622
  H     -1.523890   -0.596308    3.041060

 Total Charge           Charge          ....    0
 Multiplicity           Mult            ....    1
 Number of Electrons    NEL             ....   56
 Basis Dimension        Dim             ....  271

ORBITAL ENERGIES
----------------

  NO   OCC          E(Eh)            E(eV)
   0   2.0000     -19.047896      -518.3196
   1   2.0000     -19.044039      -518.2146
   2   2.0000     -14.430556      -392.6754
   3   2.0000     -10.235605      -278.5250
   4   2.0000     -10.219494      -278.0866
   5   2.0000     -10.169180      -276.7175
   6   2.0000     -10.155869      -276.3552
   7   2.0000      -1.010530       -27.4979
   8   2.0000      -0.997104       -27.1326
   9   2.0000      -0.913253       -24.8509
  10   2.0000      -0.791671       -21.5425
  11   2.0000      -0.702680       -19.1209
  12   2.0000      -0.623967       -16.9790
  13   2.0000      -0.578914       -15.7530
  14   2.0000      -0.562988       -15.3197
  15   2.0000      -0.501366       -13.6429
  16   2.0000      -0.491808       -13.3828
  17   2.0000      -0.451659       -12.2903
  18   2.0000      -0.429433       -11.6855
  19   2.0000      -0.408873       -11.1260
  20   2.0000      -0.399646       -10.8749
  21   2.0000      -0.376437       -10.2434
  22   2.0000      -0.365644        -9.9497
  23   2.0000      -0.346144        -9.4191
  24   2.0000      -0.333293        -9.0694
  25   2.0000      -0.239824        -6.5259
  26   2.0000      -0.235777        -6.4158
  27   2.0000      -0.216027        -5.8784
  28   0.0000       0.014206         0.3866
  29   0.0000       0.051198         1.3932
  30   0.0000       0.055670         1.5149
  31   0.0000       0.067929         1.8484
  32   0.0000       0.070564         1.9201

MULLIKEN ATOMIC CHARGES
-----------------------
   0 N :   -0.253600
   1 C :   -0.159608
   2 C :   -0.129806
   3 C :   -0.246638
   4 C :    0.214750
   5 O :   -0.580020
   6 O :   -0.588833
   7 H :    0.334039
   8 H :    0.334511
   9 H :    0.154948
  10 H :    0.146654
  11 H :    0.103989
  12 H :    0.111411
  13 H :    0.109280
  14 H :    0.110786
  15 H :    0.338138
Sum of atomic charges:   -0.0000000

LOEWDIN ATOMIC CHARGES
----------------------
   0 N :    0.184503
   1 C :   -0.256794
   2 C :   -0.258959
   3 C :   -0.253394
   4 C :   -0.688374
   5 O :   -0.145493
   6 O :   -0.154122
   7 H :    0.233413
   8 H :    0.235240
   9 H :    0.147641
  10 H :    0.142521
  11 H :    0.141121
  12 H :    0.141876
  13 H :    0.149368
  14 H :    0.147007
  15 H :    0.234445

  Mayer bond orders larger than 0.100000
B(  0-N ,  1-C ) :   0.9043 B(  0-N ,  7-H ) :   0.8718 B(  0-N ,  8-H ) :   0.8703
B(  0-N , 15-H ) :   0.8686 B(  1-C ,  2-C ) :   0.9619 B(  1-C ,  9-H ) :   0.9622
B(  1-C , 10-H ) :   0.9572 B(  2-C ,  3-C ) :   0.9315 B(  2-C , 11-H ) :   0.9567
B(  2-C , 12-H ) :   0.9626 B(  3-C ,  4-C ) :   0.9437 B(  3-C ,  5-O ) :  -0.1100
B(  3-C , 13-H ) :   0.9513 B(  3-C , 14-H ) :   0.9558 B(  4-C ,  5-O ) :   1.8274
B(  4-C ,  6-O ) :   1.8422

Dispersion correction           -0.018229141
FINAL SINGLE POINT ENERGY      -363.033979534510

DIPOLE MOMENT
-------------

Method             : SCF
Type of density    : Electron Density
Multiplicity       :   1
Irrep              :   0
Energy             :  -363.0157503936266039 Eh
Relativity type    :
Basis              : AO
                                X                 Y                 Z
Electronic contribution:      0.782100136      -2.614403099      -2.873727718
Nuclear contribution   :     -3.218187534       6.250608749      11.553633831
                        -----------------------------------------
Total Dipole Moment    :     -2.436087398       3.636205650       8.679906112
                        -----------------------------------------
Magnitude (a.u.)       :      9.720971323
Magnitude (Debye)      :     24.708745466

Rotational constants in cm-1:             0.235946             0.040680             0.037247
Rotational constants in MHz :          7073.487732          1219.550430          1116.641853

                             ****ORCA TERMINATED NORMALLY****
TOTAL RUN TIME: 0 days 0 hours 0 minutes 14 seconds 603 msec
