                         Program Version 6.0.1  -  RELEASE   -
|  1> ! Opt B3LYP D4 def2-TZVP TightSCF TightOpt CPCM(water)
|  2>
|  3> %maxcore 3000
|  4>
|  5> %pal
|  6> nprocs 30
|  7> end
|  8>
|  9> * xyz 0 1
| 10> N          0.02030        1.01270        0.72510
| 11> C          0.72120        1.61240       -0.40640
| 12> C         -0.13770        1.78700       -1.67810
| 13> C         -0.62990        0.51670       -2.40180
| 14> C         -1.88390       -0.11020       -1.83660
| 15> O         -1.90190       -0.69900       -0.62990
| 16> O         -2.90210       -0.12480       -2.51050
| 17> H          0.60030        1.14490        1.58520
| 18> H         -0.90860        1.47000        0.87180
| 19> H          1.05570        2.63120       -0.10670
| 20> H          1.63260        1.01750       -0.63840
| 21> H          0.54240        2.30060       -2.39390
| 22> H         -0.99290        2.47360       -1.49530
| 23> H          0.18980       -0.22730       -2.49190
| 24> H         -0.89230        0.84090       -3.43420
| 25> H         -0.06930       -0.01490        0.58380
| 26> *
| 27>
| 28>                          ****END OF INPUT****
 Total Charge           Charge          ....    0
 Multiplicity           Mult            ....    1
 Number of Electrons    NEL             ....   56
Dispersion correction           -0.019122382
FINAL SINGLE POINT ENERGY      -363.025798257468
Dispersion correction             ... done (  0.0 sec)
Dispersion correction           -0.019272723
FINAL SINGLE POINT ENERGY      -363.038404571627
Dispersion correction             ... done (  0.0 sec)
Dispersion correction           -0.019324421
FINAL SINGLE POINT ENERGY      -363.041589313844
Dispersion correction             ... done (  0.0 sec)
FINAL SINGLE POINT ENERGY      -363.043499742872
FINAL SINGLE POINT ENERGY      -363.047645087797
FINAL SINGLE POINT ENERGY      -363.048926415418
FINAL SINGLE POINT ENERGY      -363.050339403544
FINAL SINGLE POINT ENERGY      -363.051045283134
FINAL SINGLE POINT ENERGY      -363.051752262105
FINAL SINGLE POINT ENERGY      -363.052099235267
FINAL SINGLE POINT ENERGY      -363.052547552952
FINAL SINGLE POINT ENERGY      -363.052601036749
FINAL SINGLE POINT ENERGY      -363.052639046624
FINAL SINGLE POINT ENERGY      -363.052654093289
FINAL SINGLE POINT ENERGY      -363.052661102427
FINAL SINGLE POINT ENERGY      -363.052662946714
FINAL SINGLE POINT ENERGY      -363.052663627373
Dispersion correction             ... done (  0.0 sec)
Dispersion correction           -0.019627257
FINAL SINGLE POINT ENERGY      -363.052663829387
Dispersion correction             ... done (  0.0 sec)
Dispersion correction           -0.019627878
FINAL SINGLE POINT ENERGY      -363.052663882719
Dispersion correction             ... done (  0.0 sec)
                    ***********************HURRAY********************

CARTESIAN COORDINATES (ANGSTROEM)
---------------------------------
  N     -0.054728    1.096853    0.712385
  C      0.753504    1.570472   -0.451515
  C     -0.138794    1.845240   -1.655837
  C     -0.648409    0.609508   -2.410141
  C     -1.750156   -0.252195   -1.771918
  O     -1.807818   -0.335628   -0.498131
  O     -2.514946   -0.859939   -2.543029
  H      0.519659    0.636750    1.415204
  H     -0.533359    1.874073    1.164263
  H      1.294154    2.465340   -0.148513
  H      1.478051    0.788395   -0.677477
  H      0.455777    2.437167   -2.355390
  H     -0.974924    2.483033   -1.351739
  H      0.195672   -0.063413   -2.602951
  H     -1.015878    0.918968   -3.389069
  H     -0.814105    0.416675    0.306058

 Multiplicity           Mult            ....    1
 Number of Electrons    NEL             ....   56
 Basis Dimension        Dim             ....  271

ORBITAL ENERGIES
----------------

  NO   OCC          E(Eh)            E(eV)
   0   2.0000     -19.079051      -519.1674
   1   2.0000     -19.066226      -518.8184
   2   2.0000     -14.381709      -391.3462
   3   2.0000     -10.259442      -279.1736
   4   2.0000     -10.214462      -277.9496
   5   2.0000     -10.173279      -276.8290
   6   2.0000     -10.163062      -276.5510
   7   2.0000      -1.033913       -28.1342
   8   2.0000      -0.963629       -26.2217
   9   2.0000      -0.939841       -25.5744
  10   2.0000      -0.786968       -21.4145
  11   2.0000      -0.698525       -19.0078
  12   2.0000      -0.614221       -16.7138
  13   2.0000      -0.556250       -15.1363
  14   2.0000      -0.548482       -14.9250
  15   2.0000      -0.503841       -13.7102
  16   2.0000      -0.472484       -12.8569
  17   2.0000      -0.462314       -12.5802
  18   2.0000      -0.431426       -11.7397
  19   2.0000      -0.425868       -11.5885
  20   2.0000      -0.397331       -10.8119
  21   2.0000      -0.379797       -10.3348
  22   2.0000      -0.369501       -10.0546
  23   2.0000      -0.354235        -9.6392
  24   2.0000      -0.339604        -9.2411
  25   2.0000      -0.266103        -7.2410
  26   2.0000      -0.257594        -7.0095
  27   2.0000      -0.239174        -6.5083
  28   0.0000       0.028538         0.7766
  29   0.0000       0.040176         1.0933
  30   0.0000       0.063471         1.7271
  31   0.0000       0.071156         1.9363
  32   0.0000       0.083583         2.2744

MULLIKEN ATOMIC CHARGES
-----------------------
   0 N :   -0.303062
   1 C :   -0.140450
   2 C :   -0.187972
   3 C :   -0.231621
   4 C :    0.268976
   5 O :   -0.559831
   6 O :   -0.530441
   7 H :    0.304339
   8 H :    0.301682
   9 H :    0.151451
  10 H :    0.149119
  11 H :    0.122312
  12 H :    0.119697
  13 H :    0.114169
  14 H :    0.106435
  15 H :    0.315196
Sum of atomic charges:    0.0000000

LOEWDIN ATOMIC CHARGES
----------------------
   0 N :    0.134234
   1 C :   -0.253876
   2 C :   -0.259478
   3 C :   -0.246753
   4 C :   -0.635690
   5 O :   -0.096642
   6 O :   -0.096644
   7 H :    0.203336
   8 H :    0.205181
   9 H :    0.140548
  10 H :    0.143993
  11 H :    0.150406
  12 H :    0.144213
  13 H :    0.151491
  14 H :    0.143879
  15 H :    0.171802

  Mayer bond orders larger than 0.100000
B(  0-N ,  1-C ) :   0.9050 B(  0-N ,  7-H ) :   0.8890 B(  0-N ,  8-H ) :   0.8911
B(  0-N , 15-H ) :   0.7127 B(  1-C ,  2-C ) :   0.9727 B(  1-C ,  9-H ) :   0.9687
B(  1-C , 10-H ) :   0.9650 B(  2-C ,  3-C ) :   0.9335 B(  2-C , 11-H ) :   0.9561
B(  2-C , 12-H ) :   0.9679 B(  3-C ,  4-C ) :   0.9588 B(  3-C , 13-H ) :   0.9394
B(  3-C , 14-H ) :   0.9595 B(  4-C ,  5-O ) :   1.5672 B(  4-C ,  6-O ) :   1.9030
B(  5-O , 15-H ) :   0.2517

Dispersion correction           -0.019627727
FINAL SINGLE POINT ENERGY      -363.052663894887

DIPOLE MOMENT
-------------

Method             : SCF
Type of density    : Electron Density
Multiplicity       :   1
Irrep              :   0
Energy             :  -363.0330361679010025 Eh
Relativity type    :
Basis              : AO
                                X                 Y                 Z
Electronic contribution:     -4.017457696      -3.578824850       0.115270699
Nuclear contribution   :      7.964309321       6.798587548       2.815976746
                        -----------------------------------------
Total Dipole Moment    :      3.946851625       3.219762698       2.931247445
                        -----------------------------------------
Magnitude (a.u.)       :      5.876795144
Magnitude (Debye)      :     14.937626142

Rotational constants in cm-1:             0.159416             0.060114             0.046261
Rotational constants in MHz :          4779.164866          1802.160661          1386.861437

                             ****ORCA TERMINATED NORMALLY****
TOTAL RUN TIME: 0 days 0 hours 4 minutes 34 seconds 230 msec
