                         Program Version 6.0.1  -  RELEASE   -
|  1> ! Opt B3LYP D4 def2-TZVP TightSCF TightOpt CPCM(water)
|  2>
|  3> %maxcore 3000
|  4>
|  5> %pal
|  6> nprocs 30
|  7> end
|  8>
|  9> * xyz 0 1
| 10> C         -0.27110        0.20890       -1.45240
| 11> C         -1.19550        0.92490       -0.50250
| 12> O         -2.50210        1.02980       -0.80950
| 13> O         -0.78430        1.41210        0.53970
| 14> C          1.18590        0.17230       -0.96400
| 15> N          2.03980       -0.53230       -1.91980
| 16> H         -0.31290        0.72430       -2.43600
| 17> H         -0.63890       -0.83200       -1.58000
| 18> H          1.23520       -0.34490        0.02030
| 19> H          1.56140        1.21230       -0.83630
| 20> H          1.71330       -1.51930       -2.03430
| 21> H          2.02200       -0.04510       -2.84520
| 22> H          3.02180       -0.54040       -1.56070
| 23> *
| 24>
| 25>                          ****END OF INPUT****
 Total Charge           Charge          ....    0
 Multiplicity           Mult            ....    1
 Number of Electrons    NEL             ....   48
Dispersion correction           -0.013363754
FINAL SINGLE POINT ENERGY      -323.722772163363
Dispersion correction             ... done (  0.1 sec)
Dispersion correction           -0.013404722
FINAL SINGLE POINT ENERGY      -323.734685401282
Dispersion correction             ... done (  0.0 sec)
Dispersion correction           -0.013403913
FINAL SINGLE POINT ENERGY      -323.737511384213
Dispersion correction             ... done (  0.0 sec)
FINAL SINGLE POINT ENERGY      -323.736432631595
FINAL SINGLE POINT ENERGY      -323.737825027894
FINAL SINGLE POINT ENERGY      -323.737859258030
FINAL SINGLE POINT ENERGY      -323.737864885029
FINAL SINGLE POINT ENERGY      -323.737867158808
FINAL SINGLE POINT ENERGY      -323.737867939421
FINAL SINGLE POINT ENERGY      -323.737868628445
FINAL SINGLE POINT ENERGY      -323.737869037396
FINAL SINGLE POINT ENERGY      -323.737869662236
FINAL SINGLE POINT ENERGY      -323.737869841711
FINAL SINGLE POINT ENERGY      -323.737870290768
FINAL SINGLE POINT ENERGY      -323.737870461403
Dispersion correction             ... done (  0.0 sec)
Dispersion correction           -0.013376617
FINAL SINGLE POINT ENERGY      -323.737870519672
Dispersion correction             ... done (  0.0 sec)
Dispersion correction           -0.013376598
FINAL SINGLE POINT ENERGY      -323.737870557620
Dispersion correction             ... done (  0.0 sec)
                    ***********************HURRAY********************

CARTESIAN COORDINATES (ANGSTROEM)
---------------------------------
  C     -0.280497    0.207919   -1.439786
  C     -1.246311    0.950613   -0.487998
  O     -2.432863    1.048217   -0.884188
  O     -0.772587    1.386186    0.590133
  C      1.149028    0.188147   -0.941505
  N      2.044321   -0.527451   -1.919084
  H     -0.333244    0.687646   -2.421009
  H     -0.651557   -0.813147   -1.568034
  H      1.245282   -0.335078    0.005909
  H      1.554737    1.190410   -0.831166
  H      1.761777   -1.501378   -2.041935
  H      2.021396   -0.084159   -2.839147
  H      3.015116   -0.527326   -1.602891

 Multiplicity           Mult            ....    1
 Number of Electrons    NEL             ....   48
 Basis Dimension        Dim             ....  228

ORBITAL ENERGIES
----------------

  NO   OCC          E(Eh)            E(eV)
   0   2.0000     -19.057091      -518.5698
   1   2.0000     -19.054137      -518.4894
   2   2.0000     -14.424358      -392.5067
   3   2.0000     -10.247919      -278.8601
   4   2.0000     -10.221835      -278.1503
   5   2.0000     -10.167044      -276.6593
   6   2.0000      -1.016910       -27.6715
   7   2.0000      -0.992266       -27.0009
   8   2.0000      -0.928331       -25.2612
   9   2.0000      -0.770314       -20.9613
  10   2.0000      -0.653544       -17.7838
  11   2.0000      -0.575842       -15.6695
  12   2.0000      -0.571062       -15.5394
  13   2.0000      -0.496438       -13.5088
  14   2.0000      -0.479200       -13.0397
  15   2.0000      -0.458111       -12.4658
  16   2.0000      -0.420298       -11.4369
  17   2.0000      -0.408431       -11.1140
  18   2.0000      -0.390053       -10.6139
  19   2.0000      -0.371698       -10.1144
  20   2.0000      -0.344894        -9.3850
  21   2.0000      -0.249058        -6.7772
  22   2.0000      -0.238021        -6.4769
  23   2.0000      -0.230820        -6.2809
  24   0.0000       0.015440         0.4201
  25   0.0000       0.053598         1.4585
  26   0.0000       0.061526         1.6742
  27   0.0000       0.075663         2.0589
  28   0.0000       0.081076         2.2062

MULLIKEN ATOMIC CHARGES
-----------------------
   0 C :   -0.265906
   1 C :    0.247217
   2 O :   -0.574544
   3 O :   -0.563546
   4 C :   -0.102805
   5 N :   -0.253795
   6 H :    0.118741
   7 H :    0.121036
   8 H :    0.145424
   9 H :    0.146795
  10 H :    0.325877
  11 H :    0.325778
  12 H :    0.329728
Sum of atomic charges:   -0.0000000

LOEWDIN ATOMIC CHARGES
----------------------
   0 C :   -0.257161
   1 C :   -0.676971
   2 O :   -0.139546
   3 O :   -0.125421
   4 C :   -0.241676
   5 N :    0.189823
   6 H :    0.146546
   7 H :    0.147605
   8 H :    0.144104
   9 H :    0.144660
  10 H :    0.222561
  11 H :    0.222484
  12 H :    0.222991

  Mayer bond orders larger than 0.100000
B(  0-C ,  1-C ) :   0.9293 B(  0-C ,  4-C ) :   0.9497 B(  0-C ,  6-H ) :   0.9503
B(  0-C ,  7-H ) :   0.9468 B(  1-C ,  2-O ) :   1.8379 B(  1-C ,  3-O ) :   1.8080
B(  4-C ,  5-N ) :   0.8747 B(  4-C ,  8-H ) :   0.9593 B(  4-C ,  9-H ) :   0.9603
B(  5-N , 10-H ) :   0.8789 B(  5-N , 11-H ) :   0.8788 B(  5-N , 12-H ) :   0.8781

Dispersion correction           -0.013376515
FINAL SINGLE POINT ENERGY      -323.737870568735

DIPOLE MOMENT
-------------

Method             : SCF
Type of density    : Electron Density
Multiplicity       :   1
Irrep              :   0
Energy             :  -323.7244940539495701 Eh
Relativity type    :
Basis              : AO
                                X                 Y                 Z
Electronic contribution:     -2.549944012       1.327332452       1.400963226
Nuclear contribution   :      9.416102353      -4.698523964      -4.876220964
                        -----------------------------------------
Total Dipole Moment    :      6.866158341      -3.371191512      -3.475257737
                        -----------------------------------------
Magnitude (a.u.)       :      8.401575978
Magnitude (Debye)      :     21.355109017

Rotational constants in cm-1:             0.307125             0.061321             0.052557
Rotational constants in MHz :          9207.380268          1838.346909          1575.608975

                             ****ORCA TERMINATED NORMALLY****
TOTAL RUN TIME: 0 days 0 hours 2 minutes 48 seconds 752 msec
