                         Program Version 6.0.1  -  RELEASE   -
|  1> ! B3LYP def2-SVP TightSCF CPCM(water) CHELPG
|  2>
|  3> %maxcore 5000
|  4>
|  5> %pal
|  6> nprocs 10
|  7> end
|  8>
|  9> * xyz 0 1
| 10> C          -0.28049687842096      0.20791933931691     -1.43978550197807
| 11>   C          -1.24631081324305      0.95061260493719     -0.48799817774793
| 12>   O          -2.43286266225406      1.04821740420368     -0.88418834139283
| 13>   O          -0.77258697233184      1.38618587589972      0.59013268398889
| 14>   C           1.14902825020148      0.18814740398980     -0.94150483559759
| 15>   N           2.04432110256395     -0.52745149533953     -1.91908353806217
| 16>   H          -0.33324421346963      0.68764629292901     -2.42100860525963
| 17>   H          -0.65155657684896     -0.81314743331920     -1.56803405789209
| 18>   H           1.24528226074143     -0.33507775317588      0.00590867652137
| 19>   H           1.55473705988836      1.19041027624882     -0.83116555821255
| 20>   H           1.76177746192819     -1.50137797903618     -2.04193474455436
| 21>   H           2.02139583013576     -0.08415877080298     -2.83914663222709
| 22>   H           3.01511615110933     -0.52732576585139     -1.60289136758592
| 23> *
| 24>
| 25>                          ****END OF INPUT****

CARTESIAN COORDINATES (ANGSTROEM)
---------------------------------
  C     -0.280497    0.207919   -1.439786
  C     -1.246311    0.950613   -0.487998
  O     -2.432863    1.048217   -0.884188
  O     -0.772587    1.386186    0.590133
  C      1.149028    0.188147   -0.941505
  N      2.044321   -0.527451   -1.919084
  H     -0.333244    0.687646   -2.421009
  H     -0.651557   -0.813147   -1.568034
  H      1.245282   -0.335078    0.005909
  H      1.554737    1.190410   -0.831166
  H      1.761777   -1.501378   -2.041935
  H      2.021396   -0.084159   -2.839147
  H      3.015116   -0.527326   -1.602891

 Total Charge           Charge          ....    0
 Multiplicity           Mult            ....    1
 Number of Electrons    NEL             ....   48
 Basis Dimension        Dim             ....  119

ORBITAL ENERGIES
----------------

  NO   OCC          E(Eh)            E(eV)
   0   2.0000     -19.043815      -518.2085
   1   2.0000     -19.037804      -518.0450
   2   2.0000     -14.438861      -392.9014
   3   2.0000     -10.242264      -278.7062
   4   2.0000     -10.232883      -278.4509
   5   2.0000     -10.172022      -276.7948
   6   2.0000      -0.983851       -26.7720
   7   2.0000      -0.978887       -26.6369
   8   2.0000      -0.890750       -24.2385
   9   2.0000      -0.757372       -20.6092
  10   2.0000      -0.642489       -17.4830
  11   2.0000      -0.574552       -15.6343
  12   2.0000      -0.568259       -15.4631
  13   2.0000      -0.490156       -13.3378
  14   2.0000      -0.459684       -12.5086
  15   2.0000      -0.451211       -12.2781
  16   2.0000      -0.402252       -10.9458
  17   2.0000      -0.388638       -10.5754
  18   2.0000      -0.379022       -10.3137
  19   2.0000      -0.356101        -9.6900
  20   2.0000      -0.331207        -9.0126
  21   2.0000      -0.221630        -6.0309
  22   2.0000      -0.214491        -5.8366
  23   2.0000      -0.204249        -5.5579
  24   0.0000       0.035042         0.9535
  25   0.0000       0.075189         2.0460
  26   0.0000       0.088811         2.4167
  27   0.0000       0.100282         2.7288
  28   0.0000       0.101807         2.7703

MULLIKEN ATOMIC CHARGES
-----------------------
   0 C :   -0.050141
   1 C :    0.041927
   2 O :   -0.458818
   3 O :   -0.449045
   4 C :    0.098545
   5 N :    0.057054
   6 H :    0.017156
   7 H :    0.021207
   8 H :    0.045180
   9 H :    0.045913
  10 H :    0.210222
  11 H :    0.210050
  12 H :    0.210750
Sum of atomic charges:    0.0000000

LOEWDIN ATOMIC CHARGES
----------------------
   0 C :   -0.093441
   1 C :   -0.041321
   2 O :   -0.415435
   3 O :   -0.406615
   4 C :    0.067019
   5 N :    0.311082
   6 H :    0.030174
   7 H :    0.032061
   8 H :    0.037695
   9 H :    0.038237
  10 H :    0.146107
  11 H :    0.145837
  12 H :    0.148600

  Mayer bond orders larger than 0.100000
B(  0-C ,  1-C ) :   0.9089 B(  0-C ,  4-C ) :   1.0644 B(  0-C ,  6-H ) :   0.9350
B(  0-C ,  7-H ) :   0.9334 B(  1-C ,  2-O ) :   1.8531 B(  1-C ,  3-O ) :   1.8284
B(  2-O ,  3-O ) :   0.1192 B(  4-C ,  5-N ) :   0.9484 B(  4-C ,  8-H ) :   0.9448
B(  4-C ,  9-H ) :   0.9471 B(  5-N , 10-H ) :   0.9352 B(  5-N , 11-H ) :   0.9352
B(  5-N , 12-H ) :   0.9308

FINAL SINGLE POINT ENERGY      -323.333475491569

DIPOLE MOMENT
-------------

Method             : SCF
Type of density    : Electron Density
Multiplicity       :   1
Irrep              :   0
Energy             :  -323.3334754915685494 Eh
Relativity type    :
Basis              : AO
                                X                 Y                 Z
Electronic contribution:     -2.775989140       1.454795834       1.546395144
Nuclear contribution   :      9.416102353      -4.698523964      -4.876220964
                        -----------------------------------------
Total Dipole Moment    :      6.640113213      -3.243728130      -3.329825819
                        -----------------------------------------
Magnitude (a.u.)       :      8.105591629
Magnitude (Debye)      :     20.602776590

Rotational constants in cm-1:             0.307125             0.061321             0.052557
Rotational constants in MHz :          9207.380268          1838.346909          1575.608975

                             ****ORCA TERMINATED NORMALLY****
TOTAL RUN TIME: 0 days 0 hours 0 minutes 5 seconds 367 msec
