                         Program Version 6.0.1  -  RELEASE   -
|  1> ! B3LYP def2-SVP TightSCF CPCM(water) CHELPG
|  2>
|  3> %maxcore 5000
|  4>
|  5> %pal
|  6> nprocs 10
|  7> end
|  8>
|  9> * xyz 0 1
| 10> N           1.27448375415005     -0.07977227242307      0.41109636712500
| 11>   C           2.76332582509231     -0.02406138750602      0.20166358205466
| 12>   C           3.09866015404482      0.41197731157394     -1.21215415534513
| 13>   C           4.60663213863948      0.48186332227909     -1.42014923440926
| 14>   C           5.06026835799126      0.91183642325872     -2.83131499623260
| 15>   O           4.17975848023173      1.23305741074357     -3.66752349066917
| 16>   O           6.30397084788175      0.90909498175871     -3.02642155179828
| 17>   H           0.84361038346557      0.83552026313512      0.26544374715685
| 18>   H           0.83147568234588     -0.73444632833473     -0.23631782876908
| 19>   H           3.14134687312006     -1.02142320410644      0.42092142716453
| 20>   H           3.15085288239180      0.67058030266464      0.94536615156373
| 21>   H           2.65102544114797      1.38906065531898     -1.40947387806248
| 22>   H           2.65719354046669     -0.29050097482281     -1.92396702318618
| 23>   H           5.06350450146958     -0.48949962357927     -1.20817527775247
| 24>   H           5.05184408018872      1.18405891867883     -0.70782875469881
| 25>   H           1.04264705737230     -0.38154579863925      1.35863491585871
| 26> *
| 27>
| 28>                          ****END OF INPUT****

CARTESIAN COORDINATES (ANGSTROEM)
---------------------------------
  N      1.274484   -0.079772    0.411096
  C      2.763326   -0.024061    0.201664
  C      3.098660    0.411977   -1.212154
  C      4.606632    0.481863   -1.420149
  C      5.060268    0.911836   -2.831315
  O      4.179758    1.233057   -3.667523
  O      6.303971    0.909095   -3.026422
  H      0.843610    0.835520    0.265444
  H      0.831476   -0.734446   -0.236318
  H      3.141347   -1.021423    0.420921
  H      3.150853    0.670580    0.945366
  H      2.651025    1.389061   -1.409474
  H      2.657194   -0.290501   -1.923967
  H      5.063505   -0.489500   -1.208175
  H      5.051844    1.184059   -0.707829
  H      1.042647   -0.381546    1.358635

 Total Charge           Charge          ....    0
 Multiplicity           Mult            ....    1
 Number of Electrons    NEL             ....   56
 Basis Dimension        Dim             ....  143

ORBITAL ENERGIES
----------------

  NO   OCC          E(Eh)            E(eV)
   0   2.0000     -19.036921      -518.0210
   1   2.0000     -19.031177      -517.8647
   2   2.0000     -14.441716      -392.9791
   3   2.0000     -10.237955      -278.5889
   4   2.0000     -10.233457      -278.4665
   5   2.0000     -10.180596      -277.0281
   6   2.0000     -10.160986      -276.4945
   7   2.0000      -0.985004       -26.8033
   8   2.0000      -0.972982       -26.4762
   9   2.0000      -0.882020       -24.0010
  10   2.0000      -0.781474       -21.2650
  11   2.0000      -0.688190       -18.7266
  12   2.0000      -0.610511       -16.6128
  13   2.0000      -0.577451       -15.7132
  14   2.0000      -0.557547       -15.1716
  15   2.0000      -0.501703       -13.6520
  16   2.0000      -0.464341       -12.6354
  17   2.0000      -0.451863       -12.2958
  18   2.0000      -0.405840       -11.0435
  19   2.0000      -0.404216       -10.9993
  20   2.0000      -0.386949       -10.5294
  21   2.0000      -0.363112        -9.8808
  22   2.0000      -0.352324        -9.5872
  23   2.0000      -0.341290        -9.2870
  24   2.0000      -0.318820        -8.6755
  25   2.0000      -0.215394        -5.8612
  26   2.0000      -0.207649        -5.6504
  27   2.0000      -0.196324        -5.3422
  28   0.0000       0.034096         0.9278
  29   0.0000       0.076200         2.0735
  30   0.0000       0.078834         2.1452
  31   0.0000       0.090521         2.4632
  32   0.0000       0.093489         2.5440

MULLIKEN ATOMIC CHARGES
-----------------------
   0 N :    0.063056
   1 C :    0.079879
   2 C :    0.002298
   3 C :   -0.013924
   4 C :    0.028754
   5 O :   -0.452651
   6 O :   -0.472290
   7 H :    0.212633
   8 H :    0.212297
   9 H :    0.058746
  10 H :    0.058340
  11 H :    0.005795
  12 H :    0.006809
  13 H :   -0.004018
  14 H :    0.000294
  15 H :    0.213981
Sum of atomic charges:    0.0000000

LOEWDIN ATOMIC CHARGES
----------------------
   0 N :    0.314005
   1 C :    0.070778
   2 C :   -0.038338
   3 C :   -0.082296
   4 C :   -0.046265
   5 O :   -0.414340
   6 O :   -0.430168
   7 H :    0.147817
   8 H :    0.147511
   9 H :    0.043534
  10 H :    0.043548
  11 H :    0.023391
  12 H :    0.023955
  13 H :    0.021965
  14 H :    0.024377
  15 H :    0.150525

  Mayer bond orders larger than 0.100000
B(  0-N ,  1-C ) :   0.9683 B(  0-N ,  7-H ) :   0.9338 B(  0-N ,  8-H ) :   0.9337
B(  0-N , 15-H ) :   0.9297 B(  1-C ,  2-C ) :   1.0803 B(  1-C ,  9-H ) :   0.9456
B(  1-C , 10-H ) :   0.9456 B(  2-C ,  3-C ) :   1.0551 B(  2-C , 11-H ) :   0.9364
B(  2-C , 12-H ) :   0.9390 B(  3-C ,  4-C ) :   0.9065 B(  3-C , 13-H ) :   0.9351
B(  3-C , 14-H ) :   0.9332 B(  4-C ,  5-O ) :   1.8460 B(  4-C ,  6-O ) :   1.8379
B(  5-O ,  6-O ) :   0.1150

FINAL SINGLE POINT ENERGY      -362.587346036533

DIPOLE MOMENT
-------------

Method             : SCF
Type of density    : Electron Density
Multiplicity       :   1
Irrep              :   0
Energy             :  -362.5873460365330061 Eh
Relativity type    :
Basis              : AO
                                X                 Y                 Z
Electronic contribution:      2.401479007       1.287642743      -4.173410585
Nuclear contribution   :     -9.534167532      -3.460526178      11.297500918
                        -----------------------------------------
Total Dipole Moment    :     -7.132688525      -2.172883435       7.124090333
                        -----------------------------------------
Magnitude (a.u.)       :     10.312581204
Magnitude (Debye)      :     26.212498278

Rotational constants in cm-1:             0.269317             0.034772             0.031496
Rotational constants in MHz :          8073.911709          1042.428682           944.219190

                             ****ORCA TERMINATED NORMALLY****
TOTAL RUN TIME: 0 days 0 hours 0 minutes 6 seconds 437 msec
