                         Program Version 6.0.1  -  RELEASE   -
|  1> ! Opt B3LYP D4 def2-TZVP TightSCF TightOpt CPCM(water)
|  2>
|  3> %maxcore 5000
|  4>
|  5> %pal
|  6> nprocs 6
|  7> end
|  8>
|  9> * xyz 0 1
| 10> N          1.07890        0.09620        0.90050
| 11> C          1.64050       -0.24950       -0.40530
| 12> C          1.25090        0.79840       -1.46150
| 13> C          1.73740        0.46320       -2.88190
| 14> C          3.23540        0.48090       -3.03330
| 15> O          3.81300        1.37010       -3.86380
| 16> O          3.93390       -0.32540       -2.44110
| 17> H          1.44760        1.02270        1.21630
| 18> H          0.03490        0.13170        0.84650
| 19> H          1.25500       -1.24620       -0.71540
| 20> H          2.74400       -0.31220       -0.30900
| 21> H          1.63660        1.79820       -1.16420
| 22> H          0.14070        0.85290       -1.49580
| 23> H          1.34280       -0.52710       -3.19640
| 24> H          1.31440        1.23060       -3.56620
| 25> H          1.35580       -0.63310        1.59680
| 26> *
| 27>
| 28>                          ****END OF INPUT****
 Total Charge           Charge          ....    0
 Multiplicity           Mult            ....    1
 Number of Electrons    NEL             ....   56
Dispersion correction           -0.018179397
FINAL SINGLE POINT ENERGY      -363.024017929566
Dispersion correction             ... done (  0.0 sec)
Dispersion correction           -0.018297559
FINAL SINGLE POINT ENERGY      -363.035299092842
Dispersion correction             ... done (  0.0 sec)
Dispersion correction           -0.018229462
FINAL SINGLE POINT ENERGY      -363.036206731373
Dispersion correction             ... done (  0.0 sec)
FINAL SINGLE POINT ENERGY      -363.037709318126
FINAL SINGLE POINT ENERGY      -363.038340327441
FINAL SINGLE POINT ENERGY      -363.038635394161
FINAL SINGLE POINT ENERGY      -363.038666941764
FINAL SINGLE POINT ENERGY      -363.038703431567
FINAL SINGLE POINT ENERGY      -363.038737882746
FINAL SINGLE POINT ENERGY      -363.038788845391
FINAL SINGLE POINT ENERGY      -363.040533302039
FINAL SINGLE POINT ENERGY      -363.040612811811
FINAL SINGLE POINT ENERGY      -363.040692528549
FINAL SINGLE POINT ENERGY      -363.040699978308
FINAL SINGLE POINT ENERGY      -363.040720536594
FINAL SINGLE POINT ENERGY      -363.040723473736
FINAL SINGLE POINT ENERGY      -363.040723843453
Dispersion correction             ... done (  0.0 sec)
Dispersion correction           -0.018240773
FINAL SINGLE POINT ENERGY      -363.040724024748
Dispersion correction             ... done (  0.0 sec)
Dispersion correction           -0.018241808
FINAL SINGLE POINT ENERGY      -363.040724067072
Dispersion correction             ... done (  0.0 sec)
                    ***********************HURRAY********************

CARTESIAN COORDINATES (ANGSTROEM)
---------------------------------
  N      1.101174    0.253412    0.912606
  C      1.636690   -0.192177   -0.419694
  C      1.189227    0.743393   -1.526955
  C      1.755130    0.314211   -2.877688
  C      3.287107    0.441122   -3.035237
  O      3.902242    1.188429   -2.232723
  O      3.796787   -0.203385   -3.987826
  H      1.427034    1.192928    1.145654
  H      0.079613    0.273617    0.918160
  H      1.273064   -1.206978   -0.574237
  H      2.719856   -0.207983   -0.326671
  H      1.521129    1.758080   -1.296513
  H      0.095864    0.752510   -1.569773
  H      1.468175   -0.716143   -3.103122
  H      1.307240    0.930963   -3.662840
  H      1.401468   -0.370600    1.663059

 Multiplicity           Mult            ....    1
 Number of Electrons    NEL             ....   56
 Basis Dimension        Dim             ....  271

ORBITAL ENERGIES
----------------

  NO   OCC          E(Eh)            E(eV)
   0   2.0000     -19.052641      -518.4487
   1   2.0000     -19.050200      -518.3823
   2   2.0000     -14.425404      -392.5352
   3   2.0000     -10.240853      -278.6678
   4   2.0000     -10.222035      -278.1557
   5   2.0000     -10.169983      -276.7393
   6   2.0000     -10.156675      -276.3772
   7   2.0000      -1.011275       -27.5182
   8   2.0000      -0.993674       -27.0392
   9   2.0000      -0.922061       -25.0905
  10   2.0000      -0.791449       -21.5364
  11   2.0000      -0.699572       -19.0363
  12   2.0000      -0.618945       -16.8424
  13   2.0000      -0.577004       -15.7011
  14   2.0000      -0.560792       -15.2599
  15   2.0000      -0.497427       -13.5357
  16   2.0000      -0.489942       -13.3320
  17   2.0000      -0.454658       -12.3719
  18   2.0000      -0.427538       -11.6339
  19   2.0000      -0.408815       -11.1244
  20   2.0000      -0.405048       -11.0219
  21   2.0000      -0.379961       -10.3393
  22   2.0000      -0.364645        -9.9225
  23   2.0000      -0.346499        -9.4287
  24   2.0000      -0.333907        -9.0861
  25   2.0000      -0.245300        -6.6750
  26   2.0000      -0.232302        -6.3213
  27   2.0000      -0.225060        -6.1242
  28   0.0000       0.016713         0.4548
  29   0.0000       0.048095         1.3087
  30   0.0000       0.058920         1.6033
  31   0.0000       0.070591         1.9209
  32   0.0000       0.072758         1.9799

MULLIKEN ATOMIC CHARGES
-----------------------
   0 N :   -0.253386
   1 C :   -0.162235
   2 C :   -0.111411
   3 C :   -0.259592
   4 C :    0.231244
   5 O :   -0.572316
   6 O :   -0.580017
   7 H :    0.326159
   8 H :    0.326396
   9 H :    0.155630
  10 H :    0.153935
  11 H :    0.090858
  12 H :    0.115843
  13 H :    0.092958
  14 H :    0.114884
  15 H :    0.331049
Sum of atomic charges:   -0.0000000

LOEWDIN ATOMIC CHARGES
----------------------
   0 N :    0.192217
   1 C :   -0.234665
   2 C :   -0.266366
   3 C :   -0.252659
   4 C :   -0.681474
   5 O :   -0.134985
   6 O :   -0.150099
   7 H :    0.223291
   8 H :    0.223145
   9 H :    0.146413
  10 H :    0.144053
  11 H :    0.139665
  12 H :    0.140692
  13 H :    0.139158
  14 H :    0.147596
  15 H :    0.224017

  Mayer bond orders larger than 0.100000
B(  0-N ,  1-C ) :   0.8868 B(  0-N ,  7-H ) :   0.8781 B(  0-N ,  8-H ) :   0.8778
B(  0-N , 15-H ) :   0.8779 B(  1-C ,  2-C ) :   0.9699 B(  1-C ,  9-H ) :   0.9551
B(  1-C , 10-H ) :   0.9603 B(  2-C ,  3-C ) :   0.9443 B(  2-C , 11-H ) :   0.9557
B(  2-C , 12-H ) :   0.9534 B(  3-C ,  4-C ) :   0.9402 B(  3-C , 13-H ) :   0.9584
B(  3-C , 14-H ) :   0.9461 B(  4-C ,  5-O ) :   1.8028 B(  4-C ,  6-O ) :   1.8368

Dispersion correction           -0.018241332
FINAL SINGLE POINT ENERGY      -363.040724073781

DIPOLE MOMENT
-------------

Method             : SCF
Type of density    : Electron Density
Multiplicity       :   1
Irrep              :   0
Energy             :  -363.0224827417177380 Eh
Relativity type    :
Basis              : AO
                                X                 Y                 Z
Electronic contribution:      3.773897759       0.326246613      -1.803416591
Nuclear contribution   :     -9.386877148      -0.803756208       8.985157681
                        -----------------------------------------
Total Dipole Moment    :     -5.612979389      -0.477509595       7.181741090
                        -----------------------------------------
Magnitude (a.u.)       :      9.127483668
Magnitude (Debye)      :     23.200219733

Rotational constants in cm-1:             0.197695             0.042759             0.039628
Rotational constants in MHz :          5926.755205          1281.884686          1188.030563

                             ****ORCA TERMINATED NORMALLY****
TOTAL RUN TIME: 0 days 0 hours 16 minutes 25 seconds 62 msec
