                         Program Version 6.0.1  -  RELEASE   -
|  1> ! Opt B3LYP D4 def2-TZVP TightSCF TightOpt CPCM(water)
|  2>
|  3> %maxcore 5000
|  4>
|  5> %pal
|  6> nprocs 6
|  7> end
|  8>
|  9> * xyz 0 1
| 10> N          0.72270        0.80770        0.54390
| 11> C          0.96890        2.01810       -0.24190
| 12> C          0.71100        1.80650       -1.74680
| 13> C          1.62260        0.75910       -2.40820
| 14> C          3.07680        1.12350       -2.30490
| 15> O          3.93570        0.29810       -1.67690
| 16> O          3.48810        2.16300       -2.79570
| 17> H          0.84070        1.03310        1.55810
| 18> H         -0.25350        0.46700        0.38630
| 19> H          0.28420        2.81990        0.11320
| 20> H          2.01120        2.36810       -0.07500
| 21> H          0.85290        2.77990       -2.26560
| 22> H         -0.34760        1.49970       -1.89150
| 23> H          1.45000       -0.23710       -1.95000
| 24> H          1.35480        0.68040       -3.48370
| 25> H          1.40810        0.05960        0.29630
| 26> *
| 27>
| 28>                          ****END OF INPUT****
 Total Charge           Charge          ....    0
 Multiplicity           Mult            ....    1
 Number of Electrons    NEL             ....   56
Dispersion correction           -0.019119634
FINAL SINGLE POINT ENERGY      -363.025755880514
Dispersion correction             ... done (  0.0 sec)
Dispersion correction           -0.019344348
FINAL SINGLE POINT ENERGY      -363.037110586204
Dispersion correction             ... done (  0.0 sec)
Dispersion correction           -0.019368791
FINAL SINGLE POINT ENERGY      -363.037807524520
Dispersion correction             ... done (  0.0 sec)
FINAL SINGLE POINT ENERGY      -363.039110697332
FINAL SINGLE POINT ENERGY      -363.040127119522
FINAL SINGLE POINT ENERGY      -363.040661728771
FINAL SINGLE POINT ENERGY      -363.041139704285
FINAL SINGLE POINT ENERGY      -363.041827758600
FINAL SINGLE POINT ENERGY      -363.042788138138
FINAL SINGLE POINT ENERGY      -363.043895550324
FINAL SINGLE POINT ENERGY      -363.047703909071
FINAL SINGLE POINT ENERGY      -363.048367729042
FINAL SINGLE POINT ENERGY      -363.048873487427
FINAL SINGLE POINT ENERGY      -363.049000129923
FINAL SINGLE POINT ENERGY      -363.049074573344
FINAL SINGLE POINT ENERGY      -363.049084201665
FINAL SINGLE POINT ENERGY      -363.049089654684
Dispersion correction             ... done (  0.0 sec)
Dispersion correction           -0.020313775
FINAL SINGLE POINT ENERGY      -363.049090373959
Dispersion correction             ... done (  0.0 sec)
Dispersion correction           -0.020313015
FINAL SINGLE POINT ENERGY      -363.049090472696
Dispersion correction             ... done (  0.0 sec)
                    ***********************HURRAY********************

CARTESIAN COORDINATES (ANGSTROEM)
---------------------------------
  N      1.051435    0.798342    0.428415
  C      0.822389    2.098429   -0.274823
  C      0.616914    1.897002   -1.774594
  C      1.515383    0.835632   -2.443784
  C      2.998036    0.909310   -2.047269
  O      3.289457    0.472774   -0.881786
  O      3.819088    1.377099   -2.857491
  H      1.145644    0.930787    1.433919
  H      0.293439    0.135691    0.272306
  H     -0.036150    2.592079    0.176075
  H      1.709812    2.696667   -0.075770
  H      0.778407    2.868405   -2.246594
  H     -0.424411    1.625599   -1.963259
  H      1.147015   -0.160780   -2.185309
  H      1.425314    0.944940   -3.523985
  H      1.974830    0.424626    0.021549

 Multiplicity           Mult            ....    1
 Number of Electrons    NEL             ....   56
 Basis Dimension        Dim             ....  271

ORBITAL ENERGIES
----------------

  NO   OCC          E(Eh)            E(eV)
   0   2.0000     -19.074122      -519.0333
   1   2.0000     -19.067196      -518.8448
   2   2.0000     -14.392536      -391.6408
   3   2.0000     -10.256800      -279.1017
   4   2.0000     -10.217533      -278.0332
   5   2.0000     -10.177136      -276.9339
   6   2.0000     -10.163192      -276.5545
   7   2.0000      -1.030805       -28.0496
   8   2.0000      -0.970658       -26.4129
   9   2.0000      -0.938893       -25.5486
  10   2.0000      -0.787837       -21.4381
  11   2.0000      -0.702539       -19.1171
  12   2.0000      -0.612671       -16.6716
  13   2.0000      -0.561482       -15.2787
  14   2.0000      -0.553654       -15.0657
  15   2.0000      -0.504506       -13.7283
  16   2.0000      -0.476164       -12.9571
  17   2.0000      -0.448722       -12.2104
  18   2.0000      -0.437782       -11.9127
  19   2.0000      -0.427246       -11.6259
  20   2.0000      -0.403028       -10.9669
  21   2.0000      -0.396916       -10.8006
  22   2.0000      -0.362082        -9.8527
  23   2.0000      -0.347526        -9.4567
  24   2.0000      -0.343292        -9.3415
  25   2.0000      -0.263659        -7.1745
  26   2.0000      -0.253167        -6.8890
  27   2.0000      -0.239211        -6.5093
  28   0.0000       0.023019         0.6264
  29   0.0000       0.039603         1.0776
  30   0.0000       0.065318         1.7774
  31   0.0000       0.075749         2.0612
  32   0.0000       0.083513         2.2725

MULLIKEN ATOMIC CHARGES
-----------------------
   0 N :   -0.283480
   1 C :   -0.151052
   2 C :   -0.193938
   3 C :   -0.240589
   4 C :    0.274988
   5 O :   -0.573156
   6 O :   -0.529658
   7 H :    0.310462
   8 H :    0.305334
   9 H :    0.154961
  10 H :    0.153149
  11 H :    0.120224
  12 H :    0.123278
  13 H :    0.115813
  14 H :    0.100108
  15 H :    0.313556
Sum of atomic charges:   -0.0000000

LOEWDIN ATOMIC CHARGES
----------------------
   0 N :    0.149152
   1 C :   -0.251308
   2 C :   -0.254750
   3 C :   -0.245036
   4 C :   -0.647250
   5 O :   -0.121079
   6 O :   -0.096565
   7 H :    0.209677
   8 H :    0.209209
   9 H :    0.142124
  10 H :    0.144221
  11 H :    0.148699
  12 H :    0.143815
  13 H :    0.142576
  14 H :    0.140197
  15 H :    0.186320

  Mayer bond orders larger than 0.100000
B(  0-N ,  1-C ) :   0.9043 B(  0-N ,  7-H ) :   0.8862 B(  0-N ,  8-H ) :   0.8848
B(  0-N , 15-H ) :   0.7422 B(  1-C ,  2-C ) :   0.9873 B(  1-C ,  9-H ) :   0.9621
B(  1-C , 10-H ) :   0.9635 B(  2-C ,  3-C ) :   0.9519 B(  2-C , 11-H ) :   0.9640
B(  2-C , 12-H ) :   0.9594 B(  3-C ,  4-C ) :   0.9431 B(  3-C , 13-H ) :   0.9448
B(  3-C , 14-H ) :   0.9560 B(  4-C ,  5-O ) :   1.5877 B(  4-C ,  6-O ) :   1.9002
B(  5-O , 15-H ) :   0.2176

Dispersion correction           -0.020312995
FINAL SINGLE POINT ENERGY      -363.049090497767

DIPOLE MOMENT
-------------

Method             : SCF
Type of density    : Electron Density
Multiplicity       :   1
Irrep              :   0
Energy             :  -363.0287775027286443 Eh
Relativity type    :
Basis              : AO
                                X                 Y                 Z
Electronic contribution:      4.636720510      -1.326985285      -0.604979145
Nuclear contribution   :     -9.475249069       1.323199076       3.911270703
                        -----------------------------------------
Total Dipole Moment    :     -4.838528560      -0.003786208       3.306291557
                        -----------------------------------------
Magnitude (a.u.)       :      5.860284705
Magnitude (Debye)      :     14.895659942

Rotational constants in cm-1:             0.142860             0.066100             0.052634
Rotational constants in MHz :          4282.831825          1981.627488          1577.934638

                             ****ORCA TERMINATED NORMALLY****
TOTAL RUN TIME: 0 days 0 hours 8 minutes 11 seconds 188 msec
