                         Program Version 6.0.1  -  RELEASE   -
|  1> ! Opt B3LYP D4 def2-TZVP TightSCF TightOpt CPCM(water)
|  2>
|  3> %maxcore 5000
|  4>
|  5> %pal
|  6> nprocs 10
|  7> end
|  8>
|  9> %geom
| 10>     MaxIter 500
| 11> end
| 12>
| 13> * xyz 0 1
| 14>   O           0.04864579930993      2.06191677818554     -4.88966036198389
| 15>   H          -0.65020856190437      2.69621594402791     -5.09739509997401
| 16>   H           0.13469965808906      1.51357708318887     -5.68090968497662
| 17>   H          -0.13408490966839      2.28148604717505      1.03946079488392
| 18>   O           0.40556671271376      2.64298237738785      1.78446273034851
| 19>   H           1.09844025146407      3.17045566856497      1.36940087193802
| 20>   H          -1.00749422862861     -1.54903984833112      0.38917285282137
| 21>   O          -1.45517373525651     -0.88014868204464      0.92191576704809
| 22>   H          -1.26110004298263     -0.02144089375750      0.48422354880890
| 23>   H          -2.27099197502724     -0.50608869858251     -1.78802934332470
| 24>   C          -2.07473278303765      0.28506068873505     -2.50896735721354
| 25>   H          -0.17446406613459     -0.54169192606568     -2.87951972227567
| 26>   H          -2.48580356135504     -0.01598025841670     -3.47093814639504
| 27>   N          -0.59452841555858      0.38495427658082     -2.66316418584351
| 28>   H          -3.75780371431846      1.49398729152375     -1.98721441240150
| 29>   C          -2.67456133890605      1.60510353870688     -2.05537196930313
| 30>   O          -1.12909701176567      1.59549028344643     -0.21114491228657
| 31>   C          -2.16543684418692      2.14668356073730     -0.71486678185944
| 32>   H          -0.21879972192642      0.74618255855648     -1.77977572254684
| 33>   O          -2.78199744584477      3.10819541582567     -0.22154470144339
| 34>   H          -0.34458053169180      1.03412426286321     -3.43058819572436
| 35>   H          -2.49296762421138      2.38065590882112     -2.80596136832903
| 36>   O          -4.24873514997257     -0.90436980335591      0.62458464614013
| 37>   H          -3.27179993663755     -0.92438750023091      0.69786277733148
| 38>   H          -4.42673588638113     -0.48098627728306     -0.22319769873685
| 39>   O           1.01109687854831     -1.44653064382271     -6.10779763733452
| 40>   H           1.60266873290781     -0.68347981489309     -6.15115708212337
| 41>   H           0.21894148497765     -1.17655448866911     -6.59153542708488
| 42>   O          -1.98959672388907      4.14198421280850      2.23707226919198
| 43>   H          -1.09790140685958      3.75427087431568      2.29115050002489
| 44>   H          -2.31410703533223      3.79989334412057      1.37565195157039
| 45>   O           0.39971219004864     -2.11496559755299     -3.48197516776076
| 46>   H           1.20440590445746     -2.42286304580459     -3.04676290893679
| 47>   H           0.65338503896114     -1.92624263676143     -4.41232082224835
| 48> *
| 49>
| 50>                          ****END OF INPUT****
 Total Charge           Charge          ....    0
 Multiplicity           Mult            ....    1
 Number of Electrons    NEL             ....  118
Dispersion correction           -0.033395550
FINAL SINGLE POINT ENERGY      -858.873030102202
Dispersion correction             ... done (  0.0 sec)
Dispersion correction           -0.033408556
FINAL SINGLE POINT ENERGY      -858.873026775008
Dispersion correction             ... done (  0.0 sec)
Dispersion correction           -0.033356494
FINAL SINGLE POINT ENERGY      -858.873033335141
Dispersion correction             ... done (  0.0 sec)
FINAL SINGLE POINT ENERGY      -858.873035043206
FINAL SINGLE POINT ENERGY      -858.873036492508
FINAL SINGLE POINT ENERGY      -858.873038501923
FINAL SINGLE POINT ENERGY      -858.873039250573
FINAL SINGLE POINT ENERGY      -858.873039863120
FINAL SINGLE POINT ENERGY      -858.873040582885
FINAL SINGLE POINT ENERGY      -858.873040790798
FINAL SINGLE POINT ENERGY      -858.873041157381
FINAL SINGLE POINT ENERGY      -858.873041307334
Dispersion correction             ... done (  0.0 sec)
Dispersion correction           -0.033336361
FINAL SINGLE POINT ENERGY      -858.873034767340
Dispersion correction             ... done (  0.0 sec)
Dispersion correction           -0.033349100
FINAL SINGLE POINT ENERGY      -858.873041605738
Dispersion correction             ... done (  0.0 sec)
                    ***********************HURRAY********************

CARTESIAN COORDINATES (ANGSTROEM)
---------------------------------
  O      0.045926    2.072362   -4.882615
  H     -0.647867    2.714178   -5.084371
  H      0.123032    1.526933   -5.676784
  H     -0.130343    2.278840    1.038939
  O      0.415722    2.640384    1.779158
  H      1.105105    3.166862    1.357011
  H     -1.002678   -1.538047    0.402684
  O     -1.465401   -0.876405    0.931496
  H     -1.278980   -0.014453    0.496841
  H     -2.273721   -0.503311   -1.786903
  C     -2.077248    0.288324   -2.507216
  H     -0.177218   -0.538056   -2.880085
  H     -2.488550   -0.011821   -3.469375
  N     -0.597221    0.388162   -2.661899
  H     -3.759800    1.498243   -1.984253
  C     -2.676503    1.608488   -2.052885
  O     -1.130947    1.595927   -0.208997
  C     -2.166208    2.149318   -0.712563
  H     -0.220365    0.747472   -1.778210
  O     -2.780871    3.111842   -0.218804
  H     -0.347797    1.038601   -3.428380
  H     -2.495162    2.383773   -2.803879
  O     -4.255850   -0.927294    0.610241
  H     -3.279478   -0.942996    0.691434
  H     -4.428884   -0.491922   -0.232470
  O      1.038547   -1.449666   -6.100143
  H      1.574603   -0.647840   -6.160216
  H      0.250109   -1.265194   -6.627746
  O     -1.977452    4.145962    2.235514
  H     -1.086299    3.756818    2.286998
  H     -2.307193    3.800532    1.377305
  O      0.397839   -2.110321   -3.482368
  H      1.196522   -2.426106   -3.041872
  H      0.659489   -1.921141   -4.410423

 Multiplicity           Mult            ....    1
 Number of Electrons    NEL             ....  118
 Basis Dimension        Dim             ....  529

ORBITAL ENERGIES
----------------

  NO   OCC          E(Eh)            E(eV)
   0   2.0000     -19.142346      -520.8897
   1   2.0000     -19.141575      -520.8687
   2   2.0000     -19.125596      -520.4339
   3   2.0000     -19.121307      -520.3172
   4   2.0000     -19.110792      -520.0311
   5   2.0000     -19.105345      -519.8829
   6   2.0000     -19.094756      -519.5947
   7   2.0000     -19.086640      -519.3739
   8   2.0000     -19.085815      -519.3514
   9   2.0000     -14.381385      -391.3374
  10   2.0000     -10.277205      -279.6570
  11   2.0000     -10.216438      -278.0034
  12   2.0000     -10.175922      -276.9009
  13   2.0000      -1.052240       -28.6329
  14   2.0000      -1.027194       -27.9514
  15   2.0000      -1.024869       -27.8881
  16   2.0000      -1.007599       -27.4182
  17   2.0000      -1.006429       -27.3863
  18   2.0000      -0.994988       -27.0750
  19   2.0000      -0.986789       -26.8519
  20   2.0000      -0.972587       -26.4654
  21   2.0000      -0.965627       -26.2761
  22   2.0000      -0.955118       -25.9901
  23   2.0000      -0.770772       -20.9738
  24   2.0000      -0.654033       -17.7971
  25   2.0000      -0.558897       -15.2084
  26   2.0000      -0.553506       -15.0617
  27   2.0000      -0.542930       -14.7739
  28   2.0000      -0.542148       -14.7526
  29   2.0000      -0.539967       -14.6933
  30   2.0000      -0.531784       -14.4706
  31   2.0000      -0.523372       -14.2417
  32   2.0000      -0.513112       -13.9625
  33   2.0000      -0.510768       -13.8987
  34   2.0000      -0.487652       -13.2697
  35   2.0000      -0.478705       -13.0262
  36   2.0000      -0.455179       -12.3861
  37   2.0000      -0.443765       -12.0755
  38   2.0000      -0.431886       -11.7522
  39   2.0000      -0.421332       -11.4650
  40   2.0000      -0.410014       -11.1570
  41   2.0000      -0.399571       -10.8729
  42   2.0000      -0.397074       -10.8049
  43   2.0000      -0.389525       -10.5995
  44   2.0000      -0.382117       -10.3979
  45   2.0000      -0.378634       -10.3032
  46   2.0000      -0.374530       -10.1915
  47   2.0000      -0.369339       -10.0502
  48   2.0000      -0.359553        -9.7839
  49   2.0000      -0.335329        -9.1248
  50   2.0000      -0.331441        -9.0190
  51   2.0000      -0.320229        -8.7139
  52   2.0000      -0.314907        -8.5691
  53   2.0000      -0.304755        -8.2928
  54   2.0000      -0.302490        -8.2312
  55   2.0000      -0.289765        -7.8849
  56   2.0000      -0.281633        -7.6636
  57   2.0000      -0.271294        -7.3823
  58   2.0000      -0.260465        -7.0876
  59   0.0000      -0.000706        -0.0192
  60   0.0000       0.022212         0.6044
  61   0.0000       0.023919         0.6509
  62   0.0000       0.039040         1.0623
  63   0.0000       0.048097         1.3088

MULLIKEN ATOMIC CHARGES
-----------------------
   0 O :   -0.697712
   1 H :    0.373887
   2 H :    0.367287
   3 H :    0.360287
   4 O :   -0.739220
   5 H :    0.353300
   6 H :    0.359952
   7 O :   -0.713929
   8 H :    0.362761
   9 H :    0.130629
  10 C :   -0.124653
  11 H :    0.290876
  12 H :    0.152565
  13 N :   -0.257207
  14 H :    0.137546
  15 C :   -0.213636
  16 O :   -0.668869
  17 C :    0.389272
  18 H :    0.292207
  19 O :   -0.541312
  20 H :    0.301780
  21 H :    0.134179
  22 O :   -0.731079
  23 H :    0.354199
  24 H :    0.347729
  25 O :   -0.697926
  26 H :    0.375167
  27 H :    0.374431
  28 O :   -0.762652
  29 H :    0.333353
  30 H :    0.332787
  31 O :   -0.715267
  32 H :    0.364864
  33 H :    0.374405
Sum of atomic charges:   -0.0000000

LOEWDIN ATOMIC CHARGES
----------------------
   0 O :   -0.283685
   1 H :    0.181805
   2 H :    0.177557
   3 H :    0.137502
   4 O :   -0.339580
   5 H :    0.164636
   6 H :    0.169425
   7 O :   -0.307168
   8 H :    0.144680
   9 H :    0.137061
  10 C :   -0.256675
  11 H :    0.180118
  12 H :    0.144380
  13 N :    0.146188
  14 H :    0.157220
  15 C :   -0.236969
  16 O :   -0.091686
  17 C :   -0.605269
  18 H :    0.193792
  19 O :   -0.048611
  20 H :    0.183276
  21 H :    0.156323
  22 O :   -0.363792
  23 H :    0.137175
  24 H :    0.161484
  25 O :   -0.280225
  26 H :    0.180890
  27 H :    0.182100
  28 O :   -0.398893
  29 H :    0.131271
  30 H :    0.129408
  31 O :   -0.304459
  32 H :    0.173719
  33 H :    0.147004

  Mayer bond orders larger than 0.100000
B(  0-O ,  1-H ) :   0.8663 B(  0-O ,  2-H ) :   0.8655 B(  3-H ,  4-O ) :   0.7948
B(  3-H , 16-O ) :   0.1146 B(  4-O ,  5-H ) :   0.8803 B(  6-H ,  7-O ) :   0.8763
B(  7-O ,  8-H ) :   0.8107 B(  7-O , 23-H ) :   0.1038 B(  9-H , 10-C ) :   0.9680
B( 10-C , 12-H ) :   0.9607 B( 10-C , 13-N ) :   0.8955 B( 10-C , 15-C ) :   0.9541
B( 11-H , 13-N ) :   0.8226 B( 11-H , 31-O ) :   0.1434 B( 13-N , 18-H ) :   0.8618
B( 13-N , 20-H ) :   0.8455 B( 14-H , 15-C ) :   0.9546 B( 15-C , 17-C ) :   0.9740
B( 15-C , 21-H ) :   0.9414 B( 16-O , 17-C ) :   1.3991 B( 17-C , 19-O ) :   1.7406
B( 19-O , 30-H ) :   0.1226 B( 22-O , 23-H ) :   0.8342 B( 22-O , 24-H ) :   0.8931
B( 25-O , 26-H ) :   0.8667 B( 25-O , 27-H ) :   0.8670 B( 28-O , 29-H ) :   0.8588
B( 28-O , 30-H ) :   0.8305 B( 31-O , 32-H ) :   0.8725 B( 31-O , 33-H ) :   0.8119

Dispersion correction           -0.033348852
FINAL SINGLE POINT ENERGY      -858.873041727020

DIPOLE MOMENT
-------------

Method             : SCF
Type of density    : Electron Density
Multiplicity       :   1
Irrep              :   0
Energy             :  -858.8396928753203383 Eh
Relativity type    :
Basis              : AO
                                X                 Y                 Z
Electronic contribution:     -0.806234977       3.300176086       1.521897000
Nuclear contribution   :      4.850188908      -6.298016122     -12.363134394
                        -----------------------------------------
Total Dipole Moment    :      4.043953931      -2.997840036     -10.841237394
                        -----------------------------------------
Magnitude (a.u.)       :     11.952950954
Magnitude (Debye)      :     30.381986829

Rotational constants in cm-1:             0.019643             0.007987             0.007199
Rotational constants in MHz :           588.896986           239.455866           215.818365

                             ****ORCA TERMINATED NORMALLY****
TOTAL RUN TIME: 0 days 0 hours 7 minutes 38 seconds 862 msec
