                         Program Version 6.0.1  -  RELEASE   -
|  1> ! Opt B3LYP D4 def2-TZVP TightSCF TightOpt CPCM(water)
|  2>
|  3> %maxcore 5000
|  4>
|  5> %pal
|  6> nprocs 10
|  7> end
|  8>
|  9> %geom
| 10>     MaxIter 500
| 11> end
| 12>
| 13> * xyz 0 1
| 14>   C          -0.05354130439527      1.01531020687317     -1.29183966428368
| 15>   C          -1.01793255081412      2.12504845417734     -0.85218062485457
| 16>   O          -1.82289269929954      2.53188609107730     -1.72701068796333
| 17>   O          -0.92995454690117      2.53667277820526      0.33558145184655
| 18>   C           0.92317705945380      0.60067343432858     -0.20818907762591
| 19>   N           1.85861514197510     -0.45805742274193     -0.71521516632247
| 20>   H           0.48644925511392      1.37239731796978     -2.17307048032521
| 21>   H          -0.65408597968018      0.16184590893568     -1.61703886762333
| 22>   H           0.41379703563960      0.17880227668936      0.65467816788068
| 23>   H           1.53387867733843      1.43674632284819      0.12229279801222
| 24>   H           1.34008904824981     -1.31891347818837     -0.99499599045518
| 25>   H           2.39135738838260     -0.13115753248256     -1.52287410369166
| 26>   H           2.53324443199381     -0.72424257750555      0.00260330860595
| 27>   O          -3.84718599346913      4.25862495530698     -1.03193474557210
| 28>   H          -3.47605676615120      4.67266112865243     -0.23573518777188
| 29>   H          -3.13705852452297      3.61901591706153     -1.28221669446425
| 30>   O           0.33575806654653     -2.72403367304318     -1.39190092263118
| 31>   H           0.05247292368154     -2.72263801068146     -2.31629582716372
| 32>   H           0.80673941276529     -3.55947659878420     -1.27114186883091
| 33>   H          -1.58601219736305      4.04242060398209      0.82159986281722
| 34>   O          -1.97638734103256      4.93207955679760      1.00676746000000
| 35>   H          -1.76599540933857      5.14654814251607      1.92065553896049
| 36> *
| 37>
| 38>                          ****END OF INPUT****
 Total Charge           Charge          ....    0
 Multiplicity           Mult            ....    1
 Number of Electrons    NEL             ....   78
Dispersion correction           -0.021132184
FINAL SINGLE POINT ENERGY      -553.083847297924
Dispersion correction             ... done (  0.0 sec)
Dispersion correction           -0.021143283
FINAL SINGLE POINT ENERGY      -553.083894678521
Dispersion correction             ... done (  0.0 sec)
Dispersion correction           -0.021175855
FINAL SINGLE POINT ENERGY      -553.083969010958
Dispersion correction             ... done (  0.0 sec)
FINAL SINGLE POINT ENERGY      -553.084021029501
FINAL SINGLE POINT ENERGY      -553.084080111250
FINAL SINGLE POINT ENERGY      -553.084155786351
FINAL SINGLE POINT ENERGY      -553.084058989017
FINAL SINGLE POINT ENERGY      -553.084207879330
FINAL SINGLE POINT ENERGY      -553.084206125623
FINAL SINGLE POINT ENERGY      -553.084235823168
FINAL SINGLE POINT ENERGY      -553.085023916222
FINAL SINGLE POINT ENERGY      -553.085024100647
FINAL SINGLE POINT ENERGY      -553.085024378436
FINAL SINGLE POINT ENERGY      -553.085024608936
FINAL SINGLE POINT ENERGY      -553.085024911464
FINAL SINGLE POINT ENERGY      -553.085025553266
FINAL SINGLE POINT ENERGY      -553.085025739093
Dispersion correction             ... done (  0.0 sec)
Dispersion correction           -0.021128826
FINAL SINGLE POINT ENERGY      -553.085023564997
Dispersion correction             ... done (  0.0 sec)
Dispersion correction           -0.021126308
FINAL SINGLE POINT ENERGY      -553.085026092250
Dispersion correction             ... done (  0.0 sec)
                    ***********************HURRAY********************

CARTESIAN COORDINATES (ANGSTROEM)
---------------------------------
  C     -0.056900    1.001183   -1.327728
  C     -0.975051    2.154995   -0.900672
  O     -1.915030    2.426859   -1.687131
  O     -0.714138    2.732903    0.187769
  C      1.026974    0.681156   -0.316626
  N      1.896507   -0.435558   -0.815869
  H      0.390429    1.271761   -2.288630
  H     -0.682411    0.123983   -1.509952
  H      0.609365    0.350728    0.631420
  H      1.672662    1.536047   -0.134118
  H      1.341438   -1.304358   -0.974428
  H      2.352431   -0.187409   -1.694991
  H      2.633358   -0.654431   -0.145214
  O     -3.522139    4.600854   -1.167595
  H     -3.203616    4.836567   -0.277816
  H     -2.968032    3.815225   -1.385154
  O      0.270555   -2.705345   -1.153078
  H     -0.128471   -2.759852   -2.031772
  H      0.710010   -3.555885   -1.020192
  H     -1.607766    3.983284    0.897676
  O     -2.108322    4.736409    1.312584
  H     -2.613377    4.343097    2.034056

 Multiplicity           Mult            ....    1
 Number of Electrons    NEL             ....   78
 Basis Dimension        Dim             ....  357

ORBITAL ENERGIES
----------------

  NO   OCC          E(Eh)            E(eV)
   0   2.0000     -19.145117      -520.9651
   1   2.0000     -19.105555      -519.8886
   2   2.0000     -19.082122      -519.2509
   3   2.0000     -19.078465      -519.1514
   4   2.0000     -19.074091      -519.0324
   5   2.0000     -14.408558      -392.0768
   6   2.0000     -10.265500      -279.3384
   7   2.0000     -10.220431      -278.1121
   8   2.0000     -10.172593      -276.8103
   9   2.0000      -1.038055       -28.2469
  10   2.0000      -1.028648       -27.9909
  11   2.0000      -0.989155       -26.9163
  12   2.0000      -0.980594       -26.6833
  13   2.0000      -0.966815       -26.3084
  14   2.0000      -0.947192       -25.7744
  15   2.0000      -0.772390       -21.0178
  16   2.0000      -0.656008       -17.8509
  17   2.0000      -0.568582       -15.4719
  18   2.0000      -0.567035       -15.4298
  19   2.0000      -0.544054       -14.8045
  20   2.0000      -0.525608       -14.3025
  21   2.0000      -0.503291       -13.6952
  22   2.0000      -0.490447       -13.3458
  23   2.0000      -0.471884       -12.8406
  24   2.0000      -0.462660       -12.5896
  25   2.0000      -0.436746       -11.8845
  26   2.0000      -0.426338       -11.6013
  27   2.0000      -0.414133       -11.2691
  28   2.0000      -0.396969       -10.8021
  29   2.0000      -0.382624       -10.4117
  30   2.0000      -0.370642       -10.0857
  31   2.0000      -0.366084        -9.9617
  32   2.0000      -0.352146        -9.5824
  33   2.0000      -0.335901        -9.1403
  34   2.0000      -0.300611        -8.1800
  35   2.0000      -0.285656        -7.7731
  36   2.0000      -0.267699        -7.2845
  37   2.0000      -0.256270        -6.9735
  38   2.0000      -0.250924        -6.8280
  39   0.0000       0.012814         0.3487
  40   0.0000       0.036535         0.9942
  41   0.0000       0.047086         1.2813
  42   0.0000       0.050409         1.3717
  43   0.0000       0.066129         1.7995

MULLIKEN ATOMIC CHARGES
-----------------------
   0 C :   -0.217427
   1 C :    0.334620
   2 O :   -0.582206
   3 O :   -0.583681
   4 C :   -0.094426
   5 N :   -0.255655
   6 H :    0.129085
   7 H :    0.128726
   8 H :    0.146530
   9 H :    0.144999
  10 H :    0.301999
  11 H :    0.315457
  12 H :    0.320055
  13 O :   -0.768908
  14 H :    0.329980
  15 H :    0.332631
  16 O :   -0.691091
  17 H :    0.378265
  18 H :    0.376187
  19 H :    0.352211
  20 O :   -0.747925
  21 H :    0.350576
Sum of atomic charges:    0.0000000

LOEWDIN ATOMIC CHARGES
----------------------
   0 C :   -0.240456
   1 C :   -0.621026
   2 O :   -0.088022
   3 O :   -0.075897
   4 C :   -0.245310
   5 N :    0.170867
   6 H :    0.152414
   7 H :    0.149779
   8 H :    0.144991
   9 H :    0.143289
  10 H :    0.188084
  11 H :    0.216664
  12 H :    0.217301
  13 O :   -0.406621
  14 H :    0.129082
  15 H :    0.127317
  16 O :   -0.275909
  17 H :    0.183967
  18 H :    0.184354
  19 H :    0.134131
  20 O :   -0.350239
  21 H :    0.161242

  Mayer bond orders larger than 0.100000
B(  0-C ,  1-C ) :   0.9787 B(  0-C ,  4-C ) :   0.9663 B(  0-C ,  6-H ) :   0.9486
B(  0-C ,  7-H ) :   0.9528 B(  1-C ,  2-O ) :   1.6784 B(  1-C ,  3-O ) :   1.6215
B(  2-O , 15-H ) :   0.1370 B(  3-O , 19-H ) :   0.1527 B(  4-C ,  5-N ) :   0.8938
B(  4-C ,  8-H ) :   0.9617 B(  4-C ,  9-H ) :   0.9596 B(  5-N , 10-H ) :   0.8271
B(  5-N , 11-H ) :   0.8833 B(  5-N , 12-H ) :   0.8834 B( 10-H , 16-O ) :   0.1299
B( 13-O , 14-H ) :   0.8584 B( 13-O , 15-H ) :   0.8208 B( 16-O , 17-H ) :   0.8632
B( 16-O , 18-H ) :   0.8643 B( 19-H , 20-O ) :   0.7761 B( 20-O , 21-H ) :   0.8822

Dispersion correction           -0.021125902
FINAL SINGLE POINT ENERGY      -553.085026141597

DIPOLE MOMENT
-------------

Method             : SCF
Type of density    : Electron Density
Multiplicity       :   1
Irrep              :   0
Energy             :  -553.0639002395715806 Eh
Relativity type    :
Basis              : AO
                                X                 Y                 Z
Electronic contribution:     -0.111806852       0.558536977      -0.518360938
Nuclear contribution   :      7.308493232      -9.387441981       0.272601240
                        -----------------------------------------
Total Dipole Moment    :      7.196686381      -8.828905004      -0.245759699
                        -----------------------------------------
Magnitude (a.u.)       :     11.393079314
Magnitude (Debye)      :     28.958906214

Rotational constants in cm-1:             0.078131             0.014668             0.013401
Rotational constants in MHz :          2342.294948           439.723387           401.743903

                             ****ORCA TERMINATED NORMALLY****
TOTAL RUN TIME: 0 days 0 hours 13 minutes 54 seconds 548 msec
