                         Program Version 6.0.1  -  RELEASE   -
|  1> ! SP B3LYP D4 def2-TZVP TightSCF CPCM(water)
|  2>
|  3> %maxcore 5000
|  4>
|  5> %pal
|  6> nprocs 30
|  7> end
|  8>
|  9> %geom
| 10>     MaxIter 500
| 11> end
| 12>
| 13> * xyz 0 1
| 14> N           -0.31960325539824       -0.94681026249429        1.36234241886486
| 15> C           -0.16658730068310        0.04583997419043        0.28654859265097
| 16> C           -1.29234441649034       -0.03521794453331       -0.73643092032189
| 17> C           -1.10664153276865       -1.13335016666784       -1.78254194209835
| 18> C           -1.31454641227141       -2.56052674866516       -1.34260667141777
| 19> O           -0.46977102236302       -3.41772932731210       -1.73442338516016
| 20> O           -2.31860677667986       -2.87803913934227       -0.64927053889645
| 21> H            0.27845050937342       -0.70858289178253        2.18304182808041
| 22> H           -1.30775138325262       -0.95754214761306        1.67196210172798
| 23> H           -0.18030756675209        1.03101055181071        0.74994141284260
| 24> H            0.79103414994558       -0.10521258608948       -0.20624864853040
| 25> H           -1.33808376967471        0.90438111968487       -1.27881503586844
| 26> H           -2.25069995763928       -0.16583518401512       -0.23969652223570
| 27> H           -0.12728199331148       -1.05689500344584       -2.25023311927781
| 28> H           -1.86354084137848       -0.99529193023267       -2.56107464616044
| 29> H           -0.08072909017748       -1.90590192649598        1.07417543234750
| 30> *
| 31>
| 32>                          ****END OF INPUT****

CARTESIAN COORDINATES (ANGSTROEM)
---------------------------------
  N     -0.319603   -0.946810    1.362342
  C     -0.166587    0.045840    0.286549
  C     -1.292344   -0.035218   -0.736431
  C     -1.106642   -1.133350   -1.782542
  C     -1.314546   -2.560527   -1.342607
  O     -0.469771   -3.417729   -1.734423
  O     -2.318607   -2.878039   -0.649271
  H      0.278451   -0.708583    2.183042
  H     -1.307751   -0.957542    1.671962
  H     -0.180308    1.031011    0.749941
  H      0.791034   -0.105213   -0.206249
  H     -1.338084    0.904381   -1.278815
  H     -2.250700   -0.165835   -0.239697
  H     -0.127282   -1.056895   -2.250233
  H     -1.863541   -0.995292   -2.561075
  H     -0.080729   -1.905902    1.074175

 Total Charge           Charge          ....    0
 Multiplicity           Mult            ....    1
 Number of Electrons    NEL             ....   56
 Basis Dimension        Dim             ....  271

ORBITAL ENERGIES
----------------

  NO   OCC          E(Eh)            E(eV)
   0   2.0000     -19.051271      -518.4114
   1   2.0000     -19.048080      -518.3246
   2   2.0000     -14.431124      -392.6908
   3   2.0000     -10.239237      -278.6238
   4   2.0000     -10.224001      -278.2092
   5   2.0000     -10.173534      -276.8359
   6   2.0000     -10.155962      -276.3578
   7   2.0000      -1.011495       -27.5242
   8   2.0000      -0.997674       -27.1481
   9   2.0000      -0.914920       -24.8962
  10   2.0000      -0.794420       -21.6173
  11   2.0000      -0.708474       -19.2786
  12   2.0000      -0.623327       -16.9616
  13   2.0000      -0.578448       -15.7404
  14   2.0000      -0.569999       -15.5105
  15   2.0000      -0.501459       -13.6454
  16   2.0000      -0.489511       -13.3203
  17   2.0000      -0.454050       -12.3553
  18   2.0000      -0.430342       -11.7102
  19   2.0000      -0.420819       -11.4511
  20   2.0000      -0.393322       -10.7028
  21   2.0000      -0.385463       -10.4890
  22   2.0000      -0.372988       -10.1495
  23   2.0000      -0.345651        -9.4056
  24   2.0000      -0.331526        -9.0213
  25   2.0000      -0.243376        -6.6226
  26   2.0000      -0.237223        -6.4552
  27   2.0000      -0.218612        -5.9487
  28   0.0000       0.014103         0.3838
  29   0.0000       0.045877         1.2484
  30   0.0000       0.064101         1.7443
  31   0.0000       0.066616         1.8127
  32   0.0000       0.069342         1.8869

MULLIKEN ATOMIC CHARGES
-----------------------
   0 N :   -0.266072
   1 C :   -0.136077
   2 C :   -0.188986
   3 C :   -0.167122
   4 C :    0.177241
   5 O :   -0.586665
   6 O :   -0.577856
   7 H :    0.339604
   8 H :    0.327287
   9 H :    0.164204
  10 H :    0.161662
  11 H :    0.125692
  12 H :    0.109749
  13 H :    0.079525
  14 H :    0.107843
  15 H :    0.329971
Sum of atomic charges:   -0.0000000

LOEWDIN ATOMIC CHARGES
----------------------
   0 N :    0.187309
   1 C :   -0.248211
   2 C :   -0.257765
   3 C :   -0.252516
   4 C :   -0.696991
   5 O :   -0.159894
   6 O :   -0.149982
   7 H :    0.238573
   8 H :    0.231478
   9 H :    0.150184
  10 H :    0.150058
  11 H :    0.149888
  12 H :    0.140411
  13 H :    0.138293
  14 H :    0.154364
  15 H :    0.224800

  Mayer bond orders larger than 0.100000
B(  0-N ,  1-C ) :   0.9062 B(  0-N ,  7-H ) :   0.8680 B(  0-N ,  8-H ) :   0.8700
B(  0-N , 15-H ) :   0.8722 B(  1-C ,  2-C ) :   0.9712 B(  1-C ,  9-H ) :   0.9632
B(  1-C , 10-H ) :   0.9624 B(  2-C ,  3-C ) :   0.9480 B(  2-C , 11-H ) :   0.9620
B(  2-C , 12-H ) :   0.9612 B(  3-C ,  4-C ) :   0.9379 B(  3-C , 13-H ) :   0.9561
B(  3-C , 14-H ) :   0.9384 B(  4-C ,  5-O ) :   1.8443 B(  4-C ,  6-O ) :   1.8233

Dispersion correction           -0.019272954
FINAL SINGLE POINT ENERGY      -363.034449283340

DIPOLE MOMENT
-------------

Method             : SCF
Type of density    : Electron Density
Multiplicity       :   1
Irrep              :   0
Energy             :  -363.0151763290788267 Eh
Relativity type    :
Basis              : AO
                                X                 Y                 Z
Electronic contribution:     -0.651341102      -4.558750349      -0.051813368
Nuclear contribution   :      2.625582846       9.524374819       4.336495950
                        -----------------------------------------
Total Dipole Moment    :      1.974241744       4.965624470       4.284682581
                        -----------------------------------------
Magnitude (a.u.)       :      6.849347536
Magnitude (Debye)      :     17.409657867

Rotational constants in cm-1:             0.132328             0.057711             0.051942
Rotational constants in MHz :          3967.079255          1730.123520          1557.191974

                             ****ORCA TERMINATED NORMALLY****
TOTAL RUN TIME: 0 days 0 hours 0 minutes 15 seconds 111 msec
