                         Program Version 6.0.1  -  RELEASE   -
|  1> ! Opt B3LYP D4 def2-TZVP TightSCF TightOpt CPCM(water)
|  2>
|  3> %maxcore 5000
|  4>
|  5> %pal
|  6> nprocs 10
|  7> end
|  8>
|  9> %geom
| 10>     MaxIter 500
| 11> end
| 12>
| 13> * xyz 0 1
| 14>   N           0.57813603998673     -0.87981341735551      0.47970377328592
| 15>   C           1.13702266837286     -0.81745642227194     -0.91059984954827
| 16>   C           0.82241856845081      0.51879640451787     -1.56109598418075
| 17>   C           1.55856261250801      0.68378626141338     -2.88632982429372
| 18>   C           3.08298978154003      0.83879482690969     -2.77376448067692
| 19>   O           3.56050567000528      1.15080525842297     -1.64892700159557
| 20>   O           3.74088941642588      0.66477636593685     -3.83162056614123
| 21>   H           1.06469824295940     -0.18953728413942      1.09000156219219
| 22>   H          -0.42121904305153     -0.67386608868841      0.48605660940512
| 23>   H           0.70935228039790     -1.64764949028359     -1.47060510795931
| 24>   H           2.21017795653953     -0.96854252056668     -0.81413340844249
| 25>   H           1.11032312306640      1.32818759626592     -0.88835122481990
| 26>   H          -0.25643402438966      0.59352198434526     -1.72434731043151
| 27>   H           1.34917816868597     -0.15302274772907     -3.55729273674010
| 28>   H           1.19112973620014      1.57995149754856     -3.39449772905283
| 29>   H           0.70158737065765     -1.80516837714289      0.89115922983909
| 30>   O           2.19862868597523      0.90934743901309      1.92720679173590
| 31>   H           2.43629915145740      1.65226602654777      1.35557599692562
| 32>   O           6.43525524206956      1.19104674880963     -3.80529415219302
| 33>   H           6.59049800093998      1.26701419152410     -2.84725092721205
| 34>   H           1.85321242445128      1.31055059111625      2.73567433190351
| 35>   H           5.46746182693811      1.00117325459221     -3.84645203427002
| 36>   O           6.13907852398093      1.32290656856018     -0.95875812043516
| 37>   H           5.18264312878651      1.23834901012570     -1.22570853558110
| 38>   H           6.36868444704498      0.48071232252800     -0.54887930171314
| 39> *
| 40>
| 41>                          ****END OF INPUT****
 Total Charge           Charge          ....    0
 Multiplicity           Mult            ....    1
 Number of Electrons    NEL             ....   86
Dispersion correction           -0.026746595
FINAL SINGLE POINT ENERGY      -592.389066112242
Dispersion correction             ... done (  0.0 sec)
Dispersion correction           -0.026709681
FINAL SINGLE POINT ENERGY      -592.389079881789
Dispersion correction             ... done (  0.0 sec)
Dispersion correction           -0.026611312
FINAL SINGLE POINT ENERGY      -592.389115483110
Dispersion correction             ... done (  0.0 sec)
FINAL SINGLE POINT ENERGY      -592.389132879081
FINAL SINGLE POINT ENERGY      -592.389148093497
FINAL SINGLE POINT ENERGY      -592.389169679593
FINAL SINGLE POINT ENERGY      -592.389182869144
FINAL SINGLE POINT ENERGY      -592.389188792784
FINAL SINGLE POINT ENERGY      -592.389194057491
FINAL SINGLE POINT ENERGY      -592.389195886193
FINAL SINGLE POINT ENERGY      -592.389335482933
FINAL SINGLE POINT ENERGY      -592.389336107129
FINAL SINGLE POINT ENERGY      -592.389336484352
FINAL SINGLE POINT ENERGY      -592.389336631897
FINAL SINGLE POINT ENERGY      -592.389336755639
FINAL SINGLE POINT ENERGY      -592.389336858249
FINAL SINGLE POINT ENERGY      -592.389337065035
Dispersion correction             ... done (  0.0 sec)
Dispersion correction           -0.026674376
FINAL SINGLE POINT ENERGY      -592.389337191603
Dispersion correction             ... done (  0.0 sec)
Dispersion correction           -0.026674953
FINAL SINGLE POINT ENERGY      -592.389337282068
Dispersion correction             ... done (  0.0 sec)
                    ***********************HURRAY********************

CARTESIAN COORDINATES (ANGSTROEM)
---------------------------------
  N      0.599270   -0.922097    0.485108
  C      1.149738   -0.829018   -0.905947
  C      0.835154    0.523229   -1.522721
  C      1.553321    0.713383   -2.854374
  C      3.079669    0.860535   -2.763637
  O      3.578439    1.134242   -1.637813
  O      3.717719    0.719508   -3.838558
  H      1.063255   -0.222734    1.103330
  H     -0.406526   -0.749998    0.500734
  H      0.716847   -1.645010   -1.482723
  H      2.223039   -0.984668   -0.820072
  H      1.136306    1.314590   -0.834183
  H     -0.245204    0.608134   -1.670393
  H      1.329209   -0.107267   -3.540369
  H      1.181696    1.621301   -3.338610
  H      0.755211   -1.847862    0.884455
  O      2.062280    0.936571    2.023622
  H      2.717831    1.350640    1.445651
  O      6.422763    1.185120   -3.827994
  H      6.589575    1.250383   -2.870927
  H      1.538011    1.669168    2.374191
  H      5.450486    1.017757   -3.861375
  O      6.163407    1.308454   -0.978067
  H      5.204208    1.223577   -1.234159
  H      6.395377    0.468992   -0.563700

 Multiplicity           Mult            ....    1
 Number of Electrons    NEL             ....   86
 Basis Dimension        Dim             ....  400

ORBITAL ENERGIES
----------------

  NO   OCC          E(Eh)            E(eV)
   0   2.0000     -19.144791      -520.9562
   1   2.0000     -19.104654      -519.8641
   2   2.0000     -19.081430      -519.2321
   3   2.0000     -19.075094      -519.0597
   4   2.0000     -19.071544      -518.9631
   5   2.0000     -14.408669      -392.0798
   6   2.0000     -10.259692      -279.1804
   7   2.0000     -10.218869      -278.0696
   8   2.0000     -10.170779      -276.7610
   9   2.0000     -10.163303      -276.5575
  10   2.0000      -1.034082       -28.1388
  11   2.0000      -1.028125       -27.9767
  12   2.0000      -0.988015       -26.8852
  13   2.0000      -0.980870       -26.6908
  14   2.0000      -0.965724       -26.2787
  15   2.0000      -0.942676       -25.6515
  16   2.0000      -0.792504       -21.5651
  17   2.0000      -0.701687       -19.0939
  18   2.0000      -0.620376       -16.8813
  19   2.0000      -0.569405       -15.4943
  20   2.0000      -0.554956       -15.1011
  21   2.0000      -0.543070       -14.7777
  22   2.0000      -0.526068       -14.3150
  23   2.0000      -0.502436       -13.6720
  24   2.0000      -0.494004       -13.4425
  25   2.0000      -0.478877       -13.0309
  26   2.0000      -0.459922       -12.5151
  27   2.0000      -0.437519       -11.9055
  28   2.0000      -0.427451       -11.6315
  29   2.0000      -0.421135       -11.4597
  30   2.0000      -0.407242       -11.0816
  31   2.0000      -0.387514       -10.5448
  32   2.0000      -0.376057       -10.2330
  33   2.0000      -0.367761       -10.0073
  34   2.0000      -0.364436        -9.9168
  35   2.0000      -0.352038        -9.5794
  36   2.0000      -0.342323        -9.3151
  37   2.0000      -0.332442        -9.0462
  38   2.0000      -0.299961        -8.1624
  39   2.0000      -0.284967        -7.7543
  40   2.0000      -0.265164        -7.2155
  41   2.0000      -0.251973        -6.8565
  42   2.0000      -0.246068        -6.6958
  43   0.0000       0.013712         0.3731
  44   0.0000       0.037566         1.0222
  45   0.0000       0.041267         1.1229
  46   0.0000       0.047852         1.3021
  47   0.0000       0.058283         1.5860

MULLIKEN ATOMIC CHARGES
-----------------------
   0 N :   -0.252623
   1 C :   -0.169699
   2 C :   -0.121253
   3 C :   -0.207593
   4 C :    0.323686
   5 O :   -0.591479
   6 O :   -0.585608
   7 H :    0.312845
   8 H :    0.315279
   9 H :    0.153877
  10 H :    0.155766
  11 H :    0.092764
  12 H :    0.120654
  13 H :    0.106833
  14 H :    0.125414
  15 H :    0.320497
  16 O :   -0.691898
  17 H :    0.372632
  18 O :   -0.770106
  19 H :    0.328732
  20 H :    0.376738
  21 H :    0.331791
  22 O :   -0.751060
  23 H :    0.354141
  24 H :    0.349672
Sum of atomic charges:   -0.0000000

LOEWDIN ATOMIC CHARGES
----------------------
   0 N :    0.172961
   1 C :   -0.241952
   2 C :   -0.263844
   3 C :   -0.235477
   4 C :   -0.622917
   5 O :   -0.079610
   6 O :   -0.093972
   7 H :    0.189747
   8 H :    0.216588
   9 H :    0.144241
  10 H :    0.144601
  11 H :    0.138797
  12 H :    0.141716
  13 H :    0.144573
  14 H :    0.152395
  15 H :    0.217675
  16 O :   -0.275758
  17 H :    0.178905
  18 O :   -0.408179
  19 H :    0.128426
  20 H :    0.184247
  21 H :    0.126556
  22 O :   -0.353219
  23 H :    0.133082
  24 H :    0.160416

  Mayer bond orders larger than 0.100000
B(  0-N ,  1-C ) :   0.8923 B(  0-N ,  7-H ) :   0.8307 B(  0-N ,  8-H ) :   0.8828
B(  0-N , 15-H ) :   0.8830 B(  1-C ,  2-C ) :   0.9663 B(  1-C ,  9-H ) :   0.9551
B(  1-C , 10-H ) :   0.9660 B(  2-C ,  3-C ) :   0.9584 B(  2-C , 11-H ) :   0.9603
B(  2-C , 12-H ) :   0.9547 B(  3-C ,  4-C ) :   0.9770 B(  3-C , 13-H ) :   0.9634
B(  3-C , 14-H ) :   0.9468 B(  4-C ,  5-O ) :   1.6062 B(  4-C ,  6-O ) :   1.6741
B(  5-O , 23-H ) :   0.1550 B(  6-O , 21-H ) :   0.1432 B(  7-H , 16-O ) :   0.1097
B( 16-O , 17-H ) :   0.8627 B( 16-O , 20-H ) :   0.8645 B( 18-O , 19-H ) :   0.8598
B( 18-O , 21-H ) :   0.8164 B( 22-O , 23-H ) :   0.7719 B( 22-O , 24-H ) :   0.8829

Dispersion correction           -0.026675510
FINAL SINGLE POINT ENERGY      -592.389337306260

DIPOLE MOMENT
-------------

Method             : SCF
Type of density    : Electron Density
Multiplicity       :   1
Irrep              :   0
Energy             :  -592.3626617967317998 Eh
Relativity type    :
Basis              : AO
                                X                 Y                 Z
Electronic contribution:      1.006478896       0.412689934      -1.495132208
Nuclear contribution   :     -8.990120794      -3.538544585       8.083509417
                        -----------------------------------------
Total Dipole Moment    :     -7.983641898      -3.125854651       6.588377210
                        -----------------------------------------
Magnitude (a.u.)       :     10.812780378
Magnitude (Debye)      :     27.483903540

Rotational constants in cm-1:             0.043481             0.017540             0.013523
Rotational constants in MHz :          1303.536190           525.832338           405.422544

                             ****ORCA TERMINATED NORMALLY****
TOTAL RUN TIME: 0 days 0 hours 15 minutes 20 seconds 696 msec
