                         Program Version 6.0.1  -  RELEASE   -
|  1> ! SP B3LYP D4 def2-TZVP TightSCF CPCM(water)
|  2>
|  3> %maxcore 5000
|  4>
|  5> %pal
|  6> nprocs 30
|  7> end
|  8>
|  9> %geom
| 10>     MaxIter 500
| 11> end
| 12>
| 13> * xyz 0 1
| 14> H            0.85071085249627       -0.39917955494793       -0.67491263861731
| 15> C            0.02583639257483       -1.05544605626013       -0.40351011744639
| 16> H           -0.78391913697555       -0.46549387199096       -2.18611655567772
| 17> H            0.30998049635366       -2.08877617892099       -0.57917359013520
| 18> N           -1.13530176550519       -0.71855479115885       -1.24272392851691
| 19> H            0.44295077747113       -1.41425635891066        1.67604954816387
| 20> C           -0.27863302230341       -0.86797230287018        1.07235571428953
| 21> O           -0.38044127163170        1.50417212226645        0.70593465684580
| 22> C           -0.24896799750634        0.57626815927188        1.52488477522330
| 23> H           -1.63928632124934        0.07593867696449       -0.82665864443766
| 24> O           -0.07433188972996        0.79729414151726        2.76468200572708
| 25> H           -1.82970608628783       -1.48623881060472       -1.29215794289731
| 26> H           -1.27502314382928       -1.24554660187385        1.29935644549321
| 27> *
| 28>
| 29>                          ****END OF INPUT****

CARTESIAN COORDINATES (ANGSTROEM)
---------------------------------
  H      0.850711   -0.399180   -0.674913
  C      0.025836   -1.055446   -0.403510
  H     -0.783919   -0.465494   -2.186117
  H      0.309980   -2.088776   -0.579174
  N     -1.135302   -0.718555   -1.242724
  H      0.442951   -1.414256    1.676050
  C     -0.278633   -0.867972    1.072356
  O     -0.380441    1.504172    0.705935
  C     -0.248968    0.576268    1.524885
  H     -1.639286    0.075939   -0.826659
  O     -0.074332    0.797294    2.764682
  H     -1.829706   -1.486239   -1.292158
  H     -1.275023   -1.245547    1.299356

 Total Charge           Charge          ....    0
 Multiplicity           Mult            ....    1
 Number of Electrons    NEL             ....   48
 Basis Dimension        Dim             ....  228

ORBITAL ENERGIES
----------------

  NO   OCC          E(Eh)            E(eV)
   0   2.0000     -19.059501      -518.6354
   1   2.0000     -19.048493      -518.3358
   2   2.0000     -14.426149      -392.5555
   3   2.0000     -10.244309      -278.7618
   4   2.0000     -10.220584      -278.1162
   5   2.0000     -10.168393      -276.6960
   6   2.0000      -1.021319       -27.7915
   7   2.0000      -0.993692       -27.0397
   8   2.0000      -0.920322       -25.0432
   9   2.0000      -0.774293       -21.0696
  10   2.0000      -0.659671       -17.9506
  11   2.0000      -0.578273       -15.7356
  12   2.0000      -0.568460       -15.4686
  13   2.0000      -0.509080       -13.8528
  14   2.0000      -0.490589       -13.3496
  15   2.0000      -0.439435       -11.9576
  16   2.0000      -0.423730       -11.5303
  17   2.0000      -0.413699       -11.2573
  18   2.0000      -0.386347       -10.5130
  19   2.0000      -0.369355       -10.0507
  20   2.0000      -0.351765        -9.5720
  21   2.0000      -0.246708        -6.7133
  22   2.0000      -0.244629        -6.6567
  23   2.0000      -0.223683        -6.0867
  24   0.0000       0.018011         0.4901
  25   0.0000       0.053036         1.4432
  26   0.0000       0.064541         1.7563
  27   0.0000       0.067655         1.8410
  28   0.0000       0.077027         2.0960

MULLIKEN ATOMIC CHARGES
-----------------------
   0 H :    0.152376
   1 C :   -0.100097
   2 H :    0.338186
   3 H :    0.158152
   4 N :   -0.264590
   5 H :    0.119931
   6 C :   -0.246203
   7 O :   -0.555875
   8 C :    0.227615
   9 H :    0.310724
  10 O :   -0.600807
  11 H :    0.333348
  12 H :    0.127239
Sum of atomic charges:   -0.0000000

LOEWDIN ATOMIC CHARGES
----------------------
   0 H :    0.148704
   1 C :   -0.254274
   2 H :    0.236503
   3 H :    0.145804
   4 N :    0.186108
   5 H :    0.153006
   6 C :   -0.251945
   7 O :   -0.110800
   8 C :   -0.688332
   9 H :    0.217331
  10 O :   -0.169528
  11 H :    0.231861
  12 H :    0.155560

  Mayer bond orders larger than 0.100000
B(  0-H ,  1-C ) :   0.9679 B(  1-C ,  3-H ) :   0.9575 B(  1-C ,  4-N ) :   0.8958
B(  1-C ,  6-C ) :   0.9327 B(  2-H ,  4-N ) :   0.8711 B(  4-N ,  9-H ) :   0.8664
B(  4-N , 11-H ) :   0.8694 B(  5-H ,  6-C ) :   0.9518 B(  6-C ,  8-C ) :   0.9480
B(  6-C , 12-H ) :   0.9375 B(  7-O ,  8-C ) :   1.8013 B(  8-C , 10-O ) :   1.8363

Dispersion correction           -0.014216374
FINAL SINGLE POINT ENERGY      -323.734109846025

DIPOLE MOMENT
-------------

Method             : SCF
Type of density    : Electron Density
Multiplicity       :   1
Irrep              :   0
Energy             :  -323.7198934723203365 Eh
Relativity type    :
Basis              : AO
                                X                 Y                 Z
Electronic contribution:     -0.288493722       2.717788800       1.461044982
Nuclear contribution   :     -1.237296172      -6.818322681      -6.963851558
                        -----------------------------------------
Total Dipole Moment    :     -1.525789894      -4.100533882      -5.502806576
                        -----------------------------------------
Magnitude (a.u.)       :      7.030170206
Magnitude (Debye)      :     17.869272569

Rotational constants in cm-1:             0.257615             0.076161             0.064147
Rotational constants in MHz :          7723.102866          2283.251624          1923.071331

                             ****ORCA TERMINATED NORMALLY****
TOTAL RUN TIME: 0 days 0 hours 0 minutes 14 seconds 682 msec
