                         Program Version 6.0.1  -  RELEASE   -
|  1> ! Opt B3LYP D4 def2-TZVP TightSCF TightOpt CPCM(water)
|  2>
|  3> %maxcore 5000
|  4>
|  5> %pal
|  6> nprocs 6
|  7> end
|  8>
|  9> * xyz 0 1
| 10> N          1.53730       -0.06600        0.42280
| 11> C          2.40830       -0.10150       -0.75160
| 12> C          1.85300        0.79210       -1.87290
| 13> C          2.72400        0.75540       -3.13650
| 14> C          4.10450        1.29640       -2.89010
| 15> O          4.26850        2.56580       -2.47050
| 16> O          5.08320        0.59110       -3.07600
| 17> H          1.47190        0.91040        0.79230
| 18> H          0.58280       -0.41390        0.17390
| 19> H          2.48620       -1.14930       -1.11780
| 20> H          3.42440        0.24400       -0.45940
| 21> H          1.76640        1.84030       -1.51140
| 22> H          0.83580        0.43400       -2.14330
| 23> H          2.78240       -0.29060       -3.51090
| 24> H          2.24310        1.37600       -3.92260
| 25> H          1.93870       -0.68270        1.16580
| 26> *
| 27>
| 28>                          ****END OF INPUT****
 Total Charge           Charge          ....    0
 Multiplicity           Mult            ....    1
 Number of Electrons    NEL             ....   56
Dispersion correction           -0.018269465
FINAL SINGLE POINT ENERGY      -363.025225916866
Dispersion correction             ... done (  0.0 sec)
Dispersion correction           -0.018341230
FINAL SINGLE POINT ENERGY      -363.036919598670
Dispersion correction             ... done (  0.0 sec)
Dispersion correction           -0.018255552
FINAL SINGLE POINT ENERGY      -363.037038929302
Dispersion correction             ... done (  0.0 sec)
FINAL SINGLE POINT ENERGY      -363.038672521571
FINAL SINGLE POINT ENERGY      -363.039489099328
FINAL SINGLE POINT ENERGY      -363.039861471282
FINAL SINGLE POINT ENERGY      -363.039900679905
FINAL SINGLE POINT ENERGY      -363.039988033305
FINAL SINGLE POINT ENERGY      -363.040056697597
FINAL SINGLE POINT ENERGY      -363.040155045078
FINAL SINGLE POINT ENERGY      -363.040317045267
FINAL SINGLE POINT ENERGY      -363.040490833335
FINAL SINGLE POINT ENERGY      -363.040607688542
FINAL SINGLE POINT ENERGY      -363.040640308466
FINAL SINGLE POINT ENERGY      -363.040666017636
FINAL SINGLE POINT ENERGY      -363.040670660687
FINAL SINGLE POINT ENERGY      -363.040671683412
Dispersion correction             ... done (  0.0 sec)
Dispersion correction           -0.018248494
FINAL SINGLE POINT ENERGY      -363.040671927586
Dispersion correction             ... done (  0.0 sec)
Dispersion correction           -0.018248373
FINAL SINGLE POINT ENERGY      -363.040671991475
Dispersion correction             ... done (  0.0 sec)
                    ***********************HURRAY********************

CARTESIAN COORDINATES (ANGSTROEM)
---------------------------------
  N      1.492423   -0.010770    0.447168
  C      2.389300   -0.101438   -0.756322
  C      1.859847    0.755539   -1.890209
  C      2.778491    0.705719   -3.107385
  C      4.169525    1.353400   -2.927396
  O      4.343013    2.117419   -1.944105
  O      5.021744    1.075347   -3.809977
  H      1.423838    0.949923    0.788080
  H      0.545242   -0.327302    0.232070
  H      2.433029   -1.154860   -1.029261
  H      3.373711    0.229446   -0.434834
  H      1.766211    1.787922   -1.545997
  H      0.860233    0.406538   -2.166979
  H      2.919275   -0.326133   -3.440049
  H      2.294476    1.226297   -3.939220
  H      1.840143   -0.585548    1.216216

 Multiplicity           Mult            ....    1
 Number of Electrons    NEL             ....   56
 Basis Dimension        Dim             ....  271

ORBITAL ENERGIES
----------------

  NO   OCC          E(Eh)            E(eV)
   0   2.0000     -19.052695      -518.4502
   1   2.0000     -19.049885      -518.3737
   2   2.0000     -14.425354      -392.5338
   3   2.0000     -10.240748      -278.6649
   4   2.0000     -10.221683      -278.1461
   5   2.0000     -10.169732      -276.7325
   6   2.0000     -10.156593      -276.3749
   7   2.0000      -1.011231       -27.5170
   8   2.0000      -0.993586       -27.0368
   9   2.0000      -0.922005       -25.0890
  10   2.0000      -0.791204       -21.5297
  11   2.0000      -0.699644       -19.0383
  12   2.0000      -0.618774       -16.8377
  13   2.0000      -0.576938       -15.6993
  14   2.0000      -0.560546       -15.2532
  15   2.0000      -0.497206       -13.5297
  16   2.0000      -0.489735       -13.3264
  17   2.0000      -0.454790       -12.3755
  18   2.0000      -0.427673       -11.6376
  19   2.0000      -0.408475       -11.1152
  20   2.0000      -0.405142       -11.0245
  21   2.0000      -0.379553       -10.3282
  22   2.0000      -0.364344        -9.9143
  23   2.0000      -0.346659        -9.4331
  24   2.0000      -0.333669        -9.0796
  25   2.0000      -0.245127        -6.6702
  26   2.0000      -0.232246        -6.3197
  27   2.0000      -0.224993        -6.1224
  28   0.0000       0.016730         0.4552
  29   0.0000       0.048425         1.3177
  30   0.0000       0.058356         1.5879
  31   0.0000       0.070620         1.9217
  32   0.0000       0.072979         1.9859

MULLIKEN ATOMIC CHARGES
-----------------------
   0 N :   -0.253812
   1 C :   -0.161665
   2 C :   -0.110090
   3 C :   -0.263132
   4 C :    0.232991
   5 O :   -0.571996
   6 O :   -0.580497
   7 H :    0.326407
   8 H :    0.325859
   9 H :    0.155264
  10 H :    0.153369
  11 H :    0.091323
  12 H :    0.115558
  13 H :    0.094568
  14 H :    0.114826
  15 H :    0.331028
Sum of atomic charges:   -0.0000000

LOEWDIN ATOMIC CHARGES
----------------------
   0 N :    0.191962
   1 C :   -0.234902
   2 C :   -0.266546
   3 C :   -0.253027
   4 C :   -0.680938
   5 O :   -0.134162
   6 O :   -0.150348
   7 H :    0.223354
   8 H :    0.222875
   9 H :    0.146268
  10 H :    0.143600
  11 H :    0.140035
  12 H :    0.140666
  13 H :    0.139768
  14 H :    0.147445
  15 H :    0.223948

  Mayer bond orders larger than 0.100000
B(  0-N ,  1-C ) :   0.8869 B(  0-N ,  7-H ) :   0.8778 B(  0-N ,  8-H ) :   0.8782
B(  0-N , 15-H ) :   0.8780 B(  1-C ,  2-C ) :   0.9689 B(  1-C ,  9-H ) :   0.9550
B(  1-C , 10-H ) :   0.9600 B(  2-C ,  3-C ) :   0.9439 B(  2-C , 11-H ) :   0.9569
B(  2-C , 12-H ) :   0.9529 B(  3-C ,  4-C ) :   0.9415 B(  3-C , 13-H ) :   0.9575
B(  3-C , 14-H ) :   0.9472 B(  4-C ,  5-O ) :   1.8023 B(  4-C ,  6-O ) :   1.8357

Dispersion correction           -0.018248234
FINAL SINGLE POINT ENERGY      -363.040672008410

DIPOLE MOMENT
-------------

Method             : SCF
Type of density    : Electron Density
Multiplicity       :   1
Irrep              :   0
Energy             :  -363.0224237740101216 Eh
Relativity type    :
Basis              : AO
                                X                 Y                 Z
Electronic contribution:      3.694943051       1.779950028      -0.937760201
Nuclear contribution   :    -10.018462851      -4.932770134       6.718162491
                        -----------------------------------------
Total Dipole Moment    :     -6.323519800      -3.152820106       5.780402290
                        -----------------------------------------
Magnitude (a.u.)       :      9.129086915
Magnitude (Debye)      :     23.204294863

Rotational constants in cm-1:             0.200524             0.042784             0.039431
Rotational constants in MHz :          6011.551611          1282.639718          1182.125382

                             ****ORCA TERMINATED NORMALLY****
TOTAL RUN TIME: 0 days 0 hours 6 minutes 51 seconds 464 msec
