                         Program Version 6.0.1  -  RELEASE   -
|  1> ! Opt B3LYP D4 def2-TZVP TightSCF TightOpt CPCM(water)
|  2>
|  3> %maxcore 5000
|  4>
|  5> %pal
|  6> nprocs 6
|  7> end
|  8>
|  9> * xyz 0 1
| 10> C          0.02700        0.52600       -2.26240
| 11> C         -0.42610       -0.42710       -1.18820
| 12> O          0.20800       -0.47900       -0.00160
| 13> O         -1.40340       -1.13440       -1.37470
| 14> C          1.43300        0.21890       -2.80790
| 15> N          2.48500        0.38250       -1.80260
| 16> H         -0.01090        1.56540       -1.87150
| 17> H         -0.68120        0.45840       -3.11770
| 18> H          1.63240        0.92570       -3.64400
| 19> H          1.46230       -0.81390       -3.22080
| 20> H          2.44520        1.34260       -1.38970
| 21> H          2.39920       -0.33750       -1.05220
| 22> H          3.41450        0.25380       -2.26390
| 23> *
| 24>
| 25>                          ****END OF INPUT****
 Total Charge           Charge          ....    0
 Multiplicity           Mult            ....    1
 Number of Electrons    NEL             ....   48
Dispersion correction           -0.014163652
FINAL SINGLE POINT ENERGY      -323.725329693461
Dispersion correction             ... done (  0.0 sec)
Dispersion correction           -0.014286493
FINAL SINGLE POINT ENERGY      -323.736964891851
Dispersion correction             ... done (  0.0 sec)
Dispersion correction           -0.014335980
FINAL SINGLE POINT ENERGY      -323.738689867399
Dispersion correction             ... done (  0.0 sec)
FINAL SINGLE POINT ENERGY      -323.740576556309
FINAL SINGLE POINT ENERGY      -323.742828003133
FINAL SINGLE POINT ENERGY      -323.743938566100
FINAL SINGLE POINT ENERGY      -323.745190538980
FINAL SINGLE POINT ENERGY      -323.746252069276
FINAL SINGLE POINT ENERGY      -323.746699948952
FINAL SINGLE POINT ENERGY      -323.747020282283
FINAL SINGLE POINT ENERGY      -323.747133752344
FINAL SINGLE POINT ENERGY      -323.747165649585
FINAL SINGLE POINT ENERGY      -323.747182033758
FINAL SINGLE POINT ENERGY      -323.747188448163
FINAL SINGLE POINT ENERGY      -323.747191025996
FINAL SINGLE POINT ENERGY      -323.747191781331
FINAL SINGLE POINT ENERGY      -323.747189941892
Dispersion correction             ... done (  0.0 sec)
Dispersion correction           -0.014541629
FINAL SINGLE POINT ENERGY      -323.747191841342
Dispersion correction             ... done (  0.0 sec)
Dispersion correction           -0.014541880
FINAL SINGLE POINT ENERGY      -323.747191984196
Dispersion correction             ... done (  0.0 sec)
                    ***********************HURRAY********************

CARTESIAN COORDINATES (ANGSTROEM)
---------------------------------
  C      0.030712    0.464609   -2.326457
  C     -0.331426   -0.476122   -1.157810
  O      0.626387   -0.862832   -0.410512
  O     -1.530202   -0.767385   -1.002069
  C      1.440141    0.285244   -2.875134
  N      2.426814    0.420034   -1.756389
  H     -0.099502    1.492465   -1.970782
  H     -0.684154    0.319104   -3.135449
  H      1.676965    1.018067   -3.643352
  H      1.575692   -0.713748   -3.286796
  H      2.534461    1.389298   -1.460785
  H      1.973382   -0.143527   -0.972706
  H      3.345731    0.056193   -1.998959

 Multiplicity           Mult            ....    1
 Number of Electrons    NEL             ....   48
 Basis Dimension        Dim             ....  228

ORBITAL ENERGIES
----------------

  NO   OCC          E(Eh)            E(eV)
   0   2.0000     -19.076720      -519.1039
   1   2.0000     -19.068042      -518.8678
   2   2.0000     -14.394756      -391.7012
   3   2.0000     -10.260925      -279.2140
   4   2.0000     -10.219993      -278.1002
   5   2.0000     -10.171595      -276.7832
   6   2.0000      -1.034035       -28.1375
   7   2.0000      -0.973130       -26.4802
   8   2.0000      -0.941170       -25.6105
   9   2.0000      -0.768256       -20.9053
  10   2.0000      -0.649484       -17.6734
  11   2.0000      -0.561888       -15.2897
  12   2.0000      -0.559112       -15.2142
  13   2.0000      -0.514528       -14.0010
  14   2.0000      -0.473856       -12.8943
  15   2.0000      -0.435070       -11.8389
  16   2.0000      -0.429547       -11.6886
  17   2.0000      -0.422149       -11.4872
  18   2.0000      -0.394378       -10.7316
  19   2.0000      -0.377425       -10.2703
  20   2.0000      -0.354861        -9.6563
  21   2.0000      -0.265306        -7.2194
  22   2.0000      -0.254394        -6.9224
  23   2.0000      -0.244079        -6.6417
  24   0.0000       0.024443         0.6651
  25   0.0000       0.046341         1.2610
  26   0.0000       0.065962         1.7949
  27   0.0000       0.074602         2.0300
  28   0.0000       0.094672         2.5762

MULLIKEN ATOMIC CHARGES
-----------------------
   0 C :   -0.251032
   1 C :    0.270881
   2 O :   -0.568499
   3 O :   -0.529957
   4 C :   -0.123708
   5 N :   -0.281905
   6 H :    0.127086
   7 H :    0.119239
   8 H :    0.153909
   9 H :    0.153275
  10 H :    0.307486
  11 H :    0.310363
  12 H :    0.312863
Sum of atomic charges:   -0.0000000

LOEWDIN ATOMIC CHARGES
----------------------
   0 C :   -0.247237
   1 C :   -0.648472
   2 O :   -0.119261
   3 O :   -0.094822
   4 C :   -0.243199
   5 N :    0.152385
   6 H :    0.153308
   7 H :    0.150167
   8 H :    0.140984
   9 H :    0.145871
  10 H :    0.210453
  11 H :    0.190869
  12 H :    0.208954

  Mayer bond orders larger than 0.100000
B(  0-C ,  1-C ) :   0.9534 B(  0-C ,  4-C ) :   0.9548 B(  0-C ,  6-H ) :   0.9395
B(  0-C ,  7-H ) :   0.9568 B(  1-C ,  2-O ) :   1.6103 B(  1-C ,  3-O ) :   1.8888
B(  2-O , 11-H ) :   0.1951 B(  4-C ,  5-N ) :   0.8981 B(  4-C ,  8-H ) :   0.9621
B(  4-C ,  9-H ) :   0.9638 B(  5-N , 10-H ) :   0.8865 B(  5-N , 11-H ) :   0.7600
B(  5-N , 12-H ) :   0.8847

Dispersion correction           -0.014542002
FINAL SINGLE POINT ENERGY      -323.747191993048

DIPOLE MOMENT
-------------

Method             : SCF
Type of density    : Electron Density
Multiplicity       :   1
Irrep              :   0
Energy             :  -323.7326499914873921 Eh
Relativity type    :
Basis              : AO
                                X                 Y                 Z
Electronic contribution:     -1.823218761      -1.737820487       2.677625666
Nuclear contribution   :      6.451700534       4.182608464      -5.092807329
                        -----------------------------------------
Total Dipole Moment    :      4.628481774       2.444787978      -2.415181663
                        -----------------------------------------
Magnitude (a.u.)       :      5.764801319
Magnitude (Debye)      :     14.652960463

Rotational constants in cm-1:             0.242058             0.085141             0.067025
Rotational constants in MHz :          7256.716133          2552.457750          2009.361482

                             ****ORCA TERMINATED NORMALLY****
TOTAL RUN TIME: 0 days 0 hours 5 minutes 14 seconds 531 msec
