                         Program Version 6.0.1  -  RELEASE   -
|  1> ! Opt B3LYP D4 def2-TZVP TightSCF TightOpt CPCM(water)
|  2>
|  3> %maxcore 5000
|  4>
|  5> %pal
|  6> nprocs 6
|  7> end
|  8>
|  9> * xyz 0 1
| 10> N         -0.01980        0.94960        0.70020
| 11> C          0.69240        1.62210       -0.38420
| 12> C         -0.15880        1.84920       -1.65360
| 13> C         -0.59780        0.57090       -2.39470
| 14> C         -1.76540       -0.16740       -1.79010
| 15> O         -2.43210        0.31420       -0.72360
| 16> O         -2.15410       -1.19760       -2.31640
| 17> H          0.60340        0.91500        1.53910
| 18> H         -0.88300        1.48300        0.95180
| 19> H          1.02670        2.61930       -0.02060
| 20> H          1.60260        1.03810       -0.64640
| 21> H          0.50680        2.40380       -2.35110
| 22> H         -1.03450        2.50190       -1.44700
| 23> H          0.27880       -0.10500       -2.49550
| 24> H         -0.92250        0.86210       -3.41730
| 25> H         -0.24600       -0.03440        0.43460
| 26> *
| 27>
| 28>                          ****END OF INPUT****
 Total Charge           Charge          ....    0
 Multiplicity           Mult            ....    1
 Number of Electrons    NEL             ....   56
Dispersion correction           -0.019491138
FINAL SINGLE POINT ENERGY      -363.026519647812
Dispersion correction             ... done (  0.0 sec)
Dispersion correction           -0.019890933
FINAL SINGLE POINT ENERGY      -363.038397907463
Dispersion correction             ... done (  0.0 sec)
Dispersion correction           -0.019300350
FINAL SINGLE POINT ENERGY      -363.039741253378
Dispersion correction             ... done (  0.0 sec)
FINAL SINGLE POINT ENERGY      -363.043128776502
FINAL SINGLE POINT ENERGY      -363.042928965114
FINAL SINGLE POINT ENERGY      -363.047943925051
FINAL SINGLE POINT ENERGY      -363.049856799227
FINAL SINGLE POINT ENERGY      -363.050629947770
FINAL SINGLE POINT ENERGY      -363.051542290618
FINAL SINGLE POINT ENERGY      -363.052050685750
FINAL SINGLE POINT ENERGY      -363.052667718128
FINAL SINGLE POINT ENERGY      -363.052036340494
FINAL SINGLE POINT ENERGY      -363.052622157987
FINAL SINGLE POINT ENERGY      -363.052663215374
FINAL SINGLE POINT ENERGY      -363.052667095288
FINAL SINGLE POINT ENERGY      -363.052667665318
FINAL SINGLE POINT ENERGY      -363.052667733855
Dispersion correction             ... done (  0.0 sec)
Dispersion correction           -0.019629208
FINAL SINGLE POINT ENERGY      -363.052667702527
Dispersion correction             ... done (  0.0 sec)
Dispersion correction           -0.019629070
FINAL SINGLE POINT ENERGY      -363.052667752340
Dispersion correction             ... done (  0.0 sec)
                    ***********************HURRAY********************

CARTESIAN COORDINATES (ANGSTROEM)
---------------------------------
  N     -0.107876    1.130852    0.732525
  C      0.706098    1.638020   -0.413379
  C     -0.162318    1.845273   -1.648026
  C     -0.580432    0.571819   -2.396200
  C     -1.662661   -0.329786   -1.780131
  O     -1.758768   -0.394880   -0.507542
  O     -2.373439   -0.983721   -2.564944
  H      0.470735    0.704239    1.452796
  H     -0.636077    1.885555    1.167083
  H      1.183313    2.567012   -0.106413
  H      1.482790    0.898139   -0.606170
  H      0.420857    2.458437   -2.338853
  H     -1.041262    2.440464   -1.380565
  H      0.302674   -0.061348   -2.543033
  H     -0.924997    0.843988   -3.394302
  H     -0.821936    0.410736    0.312354

 Multiplicity           Mult            ....    1
 Number of Electrons    NEL             ....   56
 Basis Dimension        Dim             ....  271

ORBITAL ENERGIES
----------------

  NO   OCC          E(Eh)            E(eV)
   0   2.0000     -19.079230      -519.1723
   1   2.0000     -19.066244      -518.8189
   2   2.0000     -14.381609      -391.3435
   3   2.0000     -10.259465      -279.1742
   4   2.0000     -10.214469      -277.9498
   5   2.0000     -10.173286      -276.8292
   6   2.0000     -10.163066      -276.5511
   7   2.0000      -1.033976       -28.1359
   8   2.0000      -0.963544       -26.2194
   9   2.0000      -0.939904       -25.5761
  10   2.0000      -0.787002       -21.4154
  11   2.0000      -0.698536       -19.0081
  12   2.0000      -0.614142       -16.7117
  13   2.0000      -0.556093       -15.1321
  14   2.0000      -0.548440       -14.9238
  15   2.0000      -0.504072       -13.7165
  16   2.0000      -0.472369       -12.8538
  17   2.0000      -0.462377       -12.5819
  18   2.0000      -0.431488       -11.7414
  19   2.0000      -0.425771       -11.5858
  20   2.0000      -0.397347       -10.8124
  21   2.0000      -0.379936       -10.3386
  22   2.0000      -0.369457       -10.0534
  23   2.0000      -0.354179        -9.6377
  24   2.0000      -0.339697        -9.2436
  25   2.0000      -0.266190        -7.2434
  26   2.0000      -0.257695        -7.0122
  27   2.0000      -0.239198        -6.5089
  28   0.0000       0.028471         0.7747
  29   0.0000       0.040164         1.0929
  30   0.0000       0.063607         1.7308
  31   0.0000       0.071097         1.9347
  32   0.0000       0.083459         2.2710

MULLIKEN ATOMIC CHARGES
-----------------------
   0 N :   -0.303022
   1 C :   -0.140864
   2 C :   -0.188118
   3 C :   -0.231076
   4 C :    0.268736
   5 O :   -0.559744
   6 O :   -0.530195
   7 H :    0.304343
   8 H :    0.301739
   9 H :    0.151413
  10 H :    0.149285
  11 H :    0.122295
  12 H :    0.119779
  13 H :    0.114060
  14 H :    0.106238
  15 H :    0.315130
Sum of atomic charges:   -0.0000000

LOEWDIN ATOMIC CHARGES
----------------------
   0 N :    0.134138
   1 C :   -0.253929
   2 C :   -0.259511
   3 C :   -0.246588
   4 C :   -0.635646
   5 O :   -0.096634
   6 O :   -0.096479
   7 H :    0.203349
   8 H :    0.205200
   9 H :    0.140572
  10 H :    0.143971
  11 H :    0.150417
  12 H :    0.144209
  13 H :    0.151401
  14 H :    0.143745
  15 H :    0.171786

  Mayer bond orders larger than 0.100000
B(  0-N ,  1-C ) :   0.9047 B(  0-N ,  7-H ) :   0.8891 B(  0-N ,  8-H ) :   0.8912
B(  0-N , 15-H ) :   0.7124 B(  1-C ,  2-C ) :   0.9731 B(  1-C ,  9-H ) :   0.9689
B(  1-C , 10-H ) :   0.9652 B(  2-C ,  3-C ) :   0.9333 B(  2-C , 11-H ) :   0.9560
B(  2-C , 12-H ) :   0.9679 B(  3-C ,  4-C ) :   0.9591 B(  3-C , 13-H ) :   0.9392
B(  3-C , 14-H ) :   0.9595 B(  4-C ,  5-O ) :   1.5667 B(  4-C ,  6-O ) :   1.9036
B(  5-O , 15-H ) :   0.2522

Dispersion correction           -0.019628987
FINAL SINGLE POINT ENERGY      -363.052667756004

DIPOLE MOMENT
-------------

Method             : SCF
Type of density    : Electron Density
Multiplicity       :   1
Irrep              :   0
Energy             :  -363.0330387693196030 Eh
Relativity type    :
Basis              : AO
                                X                 Y                 Z
Electronic contribution:     -3.845335273      -3.770481303       0.043679261
Nuclear contribution   :      7.549384470       7.207496077       2.955816033
                        -----------------------------------------
Total Dipole Moment    :      3.704049196       3.437014774       2.999495294
                        -----------------------------------------
Magnitude (a.u.)       :      5.876225236
Magnitude (Debye)      :     14.936177553

Rotational constants in cm-1:             0.159511             0.060094             0.046263
Rotational constants in MHz :          4782.029000          1801.579891          1386.923308

                             ****ORCA TERMINATED NORMALLY****
TOTAL RUN TIME: 0 days 0 hours 10 minutes 38 seconds 904 msec
