                         Program Version 6.0.1  -  RELEASE   -
|  1> ! SP B3LYP D4 def2-TZVP TightSCF CPCM(water)
|  2>
|  3> %maxcore 5000
|  4>
|  5> %pal
|  6> nprocs 30
|  7> end
|  8>
|  9> %geom
| 10>     MaxIter 500
| 11> end
| 12>
| 13> * xyz 0 1
| 14> N           -0.61612643870305       -0.06662315454949        1.76271896019514
| 15> C            0.38247469224743        0.73603963423235        1.03842878866593
| 16> C           -0.25947031117247        1.75155948974665        0.10222818518664
| 17> C           -0.61919639758544        1.16030959211621       -1.27023870507455
| 18> C            0.65409372879762        0.85261898792638       -2.03003249340670
| 19> O            1.03183777556084        1.60150427504879       -2.96994994720882
| 20> O            1.33327250733048       -0.13706257432748       -1.64921269816018
| 21> H           -0.11928267614262       -0.77588888747730        2.30723378943155
| 22> H           -1.14300855786996        0.56042583659145        2.40629358273994
| 23> H            0.99199084578628        1.26162449063533        1.76782809739120
| 24> H            1.02704972505703        0.07702968761779        0.46234290667871
| 25> H            0.42310338699581        2.58676916556923       -0.05549816720530
| 26> H           -1.16742193313835        2.15411489327485        0.54631484445242
| 27> H           -1.18062017173356        0.23995893220700       -1.14464311302165
| 28> H           -1.20929740123193        1.87455864100706       -1.83680580947813
| 29> H           -1.28392285623760       -0.54500613994324        1.13662268585854
| 30> *
| 31>
| 32>                          ****END OF INPUT****

CARTESIAN COORDINATES (ANGSTROEM)
---------------------------------
  N     -0.616126   -0.066623    1.762719
  C      0.382475    0.736040    1.038429
  C     -0.259470    1.751559    0.102228
  C     -0.619196    1.160310   -1.270239
  C      0.654094    0.852619   -2.030032
  O      1.031838    1.601504   -2.969950
  O      1.333273   -0.137063   -1.649213
  H     -0.119283   -0.775889    2.307234
  H     -1.143009    0.560426    2.406294
  H      0.991991    1.261624    1.767828
  H      1.027050    0.077030    0.462343
  H      0.423103    2.586769   -0.055498
  H     -1.167422    2.154115    0.546315
  H     -1.180620    0.239959   -1.144643
  H     -1.209297    1.874559   -1.836806
  H     -1.283923   -0.545006    1.136623

 Total Charge           Charge          ....    0
 Multiplicity           Mult            ....    1
 Number of Electrons    NEL             ....   56
 Basis Dimension        Dim             ....  271

ORBITAL ENERGIES
----------------

  NO   OCC          E(Eh)            E(eV)
   0   2.0000     -19.048421      -518.3339
   1   2.0000     -19.047769      -518.3162
   2   2.0000     -14.428722      -392.6255
   3   2.0000     -10.237032      -278.5638
   4   2.0000     -10.212915      -277.9076
   5   2.0000     -10.174280      -276.8562
   6   2.0000     -10.155093      -276.3341
   7   2.0000      -1.012513       -27.5519
   8   2.0000      -0.996315       -27.1111
   9   2.0000      -0.915833       -24.9211
  10   2.0000      -0.792065       -21.5532
  11   2.0000      -0.703226       -19.1358
  12   2.0000      -0.618475       -16.8296
  13   2.0000      -0.577041       -15.7021
  14   2.0000      -0.568544       -15.4709
  15   2.0000      -0.509145       -13.8545
  16   2.0000      -0.479578       -13.0500
  17   2.0000      -0.449299       -12.2260
  18   2.0000      -0.441755       -12.0208
  19   2.0000      -0.411929       -11.2092
  20   2.0000      -0.393873       -10.7178
  21   2.0000      -0.372304       -10.1309
  22   2.0000      -0.369707       -10.0602
  23   2.0000      -0.349360        -9.5066
  24   2.0000      -0.335017        -9.1163
  25   2.0000      -0.242055        -6.5866
  26   2.0000      -0.234249        -6.3742
  27   2.0000      -0.217630        -5.9220
  28   0.0000       0.013606         0.3702
  29   0.0000       0.052632         1.4322
  30   0.0000       0.060905         1.6573
  31   0.0000       0.069295         1.8856
  32   0.0000       0.078829         2.1450

MULLIKEN ATOMIC CHARGES
-----------------------
   0 N :   -0.258609
   1 C :   -0.160325
   2 C :   -0.199353
   3 C :   -0.153952
   4 C :    0.199347
   5 O :   -0.581976
   6 O :   -0.572195
   7 H :    0.333697
   8 H :    0.336241
   9 H :    0.156423
  10 H :    0.153716
  11 H :    0.116921
  12 H :    0.124357
  13 H :    0.089641
  14 H :    0.085818
  15 H :    0.330250
Sum of atomic charges:   -0.0000000

LOEWDIN ATOMIC CHARGES
----------------------
   0 N :    0.190934
   1 C :   -0.261412
   2 C :   -0.249876
   3 C :   -0.245443
   4 C :   -0.687124
   5 O :   -0.153113
   6 O :   -0.141718
   7 H :    0.228990
   8 H :    0.236865
   9 H :    0.145664
  10 H :    0.143532
  11 H :    0.148613
  12 H :    0.142247
  13 H :    0.138052
  14 H :    0.135536
  15 H :    0.228253

  Mayer bond orders larger than 0.100000
B(  0-N ,  1-C ) :   0.8985 B(  0-N ,  7-H ) :   0.8761 B(  0-N ,  8-H ) :   0.8691
B(  0-N , 15-H ) :   0.8717 B(  1-C ,  2-C ) :   0.9659 B(  1-C ,  9-H ) :   0.9584
B(  1-C , 10-H ) :   0.9447 B(  2-C ,  3-C ) :   0.9529 B(  2-C , 11-H ) :   0.9618
B(  2-C , 12-H ) :   0.9636 B(  3-C ,  4-C ) :   0.9258 B(  3-C ,  6-O ) :  -0.1003
B(  3-C , 13-H ) :   0.9460 B(  3-C , 14-H ) :   0.9540 B(  4-C ,  5-O ) :   1.8552
B(  4-C ,  6-O ) :   1.7890

Dispersion correction           -0.019060356
FINAL SINGLE POINT ENERGY      -363.033101702404

DIPOLE MOMENT
-------------

Method             : SCF
Type of density    : Electron Density
Multiplicity       :   1
Irrep              :   0
Energy             :  -363.0140413462686979 Eh
Relativity type    :
Basis              : AO
                                X                 Y                 Z
Electronic contribution:      1.882379971      -1.221233676      -3.221275667
Nuclear contribution   :     -5.657555282       0.085049338      10.901180219
                        -----------------------------------------
Total Dipole Moment    :     -3.775175310      -1.136184338       7.679904552
                        -----------------------------------------
Magnitude (a.u.)       :      8.632716687
Magnitude (Debye)      :     21.942622010

Rotational constants in cm-1:             0.187540             0.049106             0.043931
Rotational constants in MHz :          5622.312252          1472.154501          1317.029022

                             ****ORCA TERMINATED NORMALLY****
TOTAL RUN TIME: 0 days 0 hours 0 minutes 14 seconds 85 msec
