                         Program Version 6.0.1  -  RELEASE   -
|  1> ! SP B3LYP D4 def2-TZVP TightSCF CPCM(water)
|  2>
|  3> %maxcore 5000
|  4>
|  5> %pal
|  6> nprocs 33
|  7> end
|  8>
|  9> %geom
| 10>     MaxIter 500
| 11> end
| 12>
| 13> * xyz 0 1
| 14> C           -0.82118853761320       -0.64013299962060        1.03038304009105
| 15> C           -1.04306030369478       -0.27782672029097        2.48168170844387
| 16> O           -1.92507718494816       -0.91277388614481        3.13314433936830
| 17> O           -0.35573940712562        0.63042659294307        3.00222763686748
| 18> C            0.00103170485280        0.41289662189009        0.30325621865982
| 19> N            0.07070030490641        0.12712582845216       -1.13612974090562
| 20> H           -0.33338151663371       -1.61608751194560        1.00777605045807
| 21> H           -1.80564501356656       -0.75417938602150        0.57662499482028
| 22> H           -0.47309293248945        1.38428800506810        0.44529155535173
| 23> H            1.00411889846369        0.45347222259724        0.72591289615761
| 24> H           -0.87051457336815       -0.14662846485207       -1.47744876941002
| 25> H            0.73144519163098       -0.63852090727006       -1.35087251706897
| 26> H            0.38645850917710        1.00512376988166       -1.60378504386485
| 27> *
| 28>
| 29>                          ****END OF INPUT****

CARTESIAN COORDINATES (ANGSTROEM)
---------------------------------
  C     -0.821189   -0.640133    1.030383
  C     -1.043060   -0.277827    2.481682
  O     -1.925077   -0.912774    3.133144
  O     -0.355739    0.630427    3.002228
  C      0.001032    0.412897    0.303256
  N      0.070700    0.127126   -1.136130
  H     -0.333382   -1.616088    1.007776
  H     -1.805645   -0.754179    0.576625
  H     -0.473093    1.384288    0.445292
  H      1.004119    0.453472    0.725913
  H     -0.870515   -0.146628   -1.477449
  H      0.731445   -0.638521   -1.350873
  H      0.386459    1.005124   -1.603785

 Total Charge           Charge          ....    0
 Multiplicity           Mult            ....    1
 Number of Electrons    NEL             ....   48
 Basis Dimension        Dim             ....  228

ORBITAL ENERGIES
----------------

  NO   OCC          E(Eh)            E(eV)
   0   2.0000     -19.053419      -518.4699
   1   2.0000     -19.048278      -518.3300
   2   2.0000     -14.430613      -392.6769
   3   2.0000     -10.243858      -278.7495
   4   2.0000     -10.219914      -278.0980
   5   2.0000     -10.168113      -276.6884
   6   2.0000      -1.015683       -27.6381
   7   2.0000      -0.996085       -27.1049
   8   2.0000      -0.917957       -24.9789
   9   2.0000      -0.771976       -21.0065
  10   2.0000      -0.657742       -17.8981
  11   2.0000      -0.578680       -15.7467
  12   2.0000      -0.575276       -15.6541
  13   2.0000      -0.502292       -13.6681
  14   2.0000      -0.479788       -13.0557
  15   2.0000      -0.459714       -12.5094
  16   2.0000      -0.417669       -11.3654
  17   2.0000      -0.406702       -11.0669
  18   2.0000      -0.387407       -10.5419
  19   2.0000      -0.366149        -9.9634
  20   2.0000      -0.344769        -9.3817
  21   2.0000      -0.243645        -6.6299
  22   2.0000      -0.242268        -6.5924
  23   2.0000      -0.221562        -6.0290
  24   0.0000       0.012424         0.3381
  25   0.0000       0.051219         1.3937
  26   0.0000       0.061506         1.6737
  27   0.0000       0.070787         1.9262
  28   0.0000       0.075389         2.0514

MULLIKEN ATOMIC CHARGES
-----------------------
   0 C :   -0.237677
   1 C :    0.224236
   2 O :   -0.598154
   3 O :   -0.561835
   4 C :   -0.123335
   5 N :   -0.246933
   6 H :    0.126257
   7 H :    0.114708
   8 H :    0.149266
   9 H :    0.144241
  10 H :    0.332437
  11 H :    0.335804
  12 H :    0.340987
Sum of atomic charges:    0.0000000

LOEWDIN ATOMIC CHARGES
----------------------
   0 C :   -0.252275
   1 C :   -0.680674
   2 O :   -0.165849
   3 O :   -0.122587
   4 C :   -0.263010
   5 N :    0.184806
   6 H :    0.151540
   7 H :    0.148011
   8 H :    0.148563
   9 H :    0.146110
  10 H :    0.233352
  11 H :    0.232028
  12 H :    0.239985

  Mayer bond orders larger than 0.100000
B(  0-C ,  1-C ) :   0.9357 B(  0-C ,  4-C ) :   0.9506 B(  0-C ,  6-H ) :   0.9371
B(  0-C ,  7-H ) :   0.9520 B(  1-C ,  2-O ) :   1.8421 B(  1-C ,  3-O ) :   1.8177
B(  4-C ,  5-N ) :   0.8952 B(  4-C ,  8-H ) :   0.9634 B(  4-C ,  9-H ) :   0.9571
B(  5-N , 10-H ) :   0.8702 B(  5-N , 11-H ) :   0.8710 B(  5-N , 12-H ) :   0.8700

Dispersion correction           -0.013480015
FINAL SINGLE POINT ENERGY      -323.731824766317

DIPOLE MOMENT
-------------

Method             : SCF
Type of density    : Electron Density
Multiplicity       :   1
Irrep              :   0
Energy             :  -323.7183447509424354 Eh
Relativity type    :
Basis              : AO
                                X                 Y                 Z
Electronic contribution:     -0.744854164       0.002232330       2.694728232
Nuclear contribution   :      3.080971759       0.379001902     -10.853919877
                        -----------------------------------------
Total Dipole Moment    :      2.336117595       0.381234232      -8.159191644
                        -----------------------------------------
Magnitude (a.u.)       :      8.495598463
Magnitude (Debye)      :     21.594095182

Rotational constants in cm-1:             0.312399             0.062245             0.053639
Rotational constants in MHz :          9365.477380          1866.055468          1608.071727

                             ****ORCA TERMINATED NORMALLY****
TOTAL RUN TIME: 0 days 0 hours 0 minutes 12 seconds 721 msec
