                         Program Version 6.0.1  -  RELEASE   -
|  1> ! Opt B3LYP D4 def2-TZVP TightSCF TightOpt CPCM(water)
|  2>
|  3> %maxcore 5000
|  4>
|  5> %pal
|  6> nprocs 18
|  7> end
|  8>
|  9> * xyz 0 1
| 10> N          1.28290       -0.09880        0.37130
| 11> C          2.73550       -0.03380        0.21400
| 12> C          3.11410        0.43510       -1.19720
| 13> C          4.63640        0.50550       -1.36360
| 14> C          5.00730        0.96970       -2.74260
| 15> O          5.71860        2.10170       -2.90470
| 16> O          4.67640        0.31970       -3.72170
| 17> H          0.86220        0.84710        0.22230
| 18> H          0.87690       -0.77750       -0.31330
| 19> H          3.16940       -1.04170        0.39980
| 20> H          3.15370        0.67260        0.96550
| 21> H          2.67860        1.44280       -1.37730
| 22> H          2.69200       -0.27530       -1.94190
| 23> H          5.08340       -0.49740       -1.19010
| 24> H          5.05480        1.21350       -0.61510
| 25> H          1.05740       -0.42040        1.34030
| 26> *
| 27>
| 28>                          ****END OF INPUT****
 Total Charge           Charge          ....    0
 Multiplicity           Mult            ....    1
 Number of Electrons    NEL             ....   56
Dispersion correction           -0.017496300
FINAL SINGLE POINT ENERGY      -363.024773423416
Dispersion correction             ... done (  0.0 sec)
Dispersion correction           -0.017518632
FINAL SINGLE POINT ENERGY      -363.036229902642
Dispersion correction             ... done (  0.0 sec)
Dispersion correction           -0.017465440
FINAL SINGLE POINT ENERGY      -363.036117948172
Dispersion correction             ... done (  0.0 sec)
FINAL SINGLE POINT ENERGY      -363.038158669999
FINAL SINGLE POINT ENERGY      -363.038817380232
FINAL SINGLE POINT ENERGY      -363.039248402877
FINAL SINGLE POINT ENERGY      -363.039271765256
FINAL SINGLE POINT ENERGY      -363.039308864591
FINAL SINGLE POINT ENERGY      -363.039341410669
FINAL SINGLE POINT ENERGY      -363.039378902488
FINAL SINGLE POINT ENERGY      -363.039868354429
FINAL SINGLE POINT ENERGY      -363.039858119423
FINAL SINGLE POINT ENERGY      -363.039899394304
FINAL SINGLE POINT ENERGY      -363.039905708777
FINAL SINGLE POINT ENERGY      -363.039908261157
FINAL SINGLE POINT ENERGY      -363.039909600611
FINAL SINGLE POINT ENERGY      -363.039909875901
Dispersion correction             ... done (  0.0 sec)
Dispersion correction           -0.017446743
FINAL SINGLE POINT ENERGY      -363.039909993131
Dispersion correction             ... done (  0.0 sec)
Dispersion correction           -0.017446785
FINAL SINGLE POINT ENERGY      -363.039909990486
Dispersion correction             ... done (  0.0 sec)
                    ***********************HURRAY********************

CARTESIAN COORDINATES (ANGSTROEM)
---------------------------------
  N      1.283326   -0.184898    0.382274
  C      2.764503    0.014335    0.216127
  C      3.103541    0.414014   -1.207562
  C      4.605556    0.606357   -1.377107
  C      5.068425    1.010594   -2.792783
  O      6.300214    1.240993   -2.913759
  O      4.208486    1.074962   -3.705966
  H      0.766513    0.670201    0.168381
  H      0.933526   -0.916776   -0.239199
  H      3.234181   -0.927191    0.496779
  H      3.053398    0.779730    0.934805
  H      2.578607    1.338702   -1.461250
  H      2.747129   -0.354830   -1.897514
  H      5.133710   -0.316118   -1.114609
  H      4.970240    1.367929   -0.681372
  H      1.048245   -0.455205    1.338454

 Multiplicity           Mult            ....    1
 Number of Electrons    NEL             ....   56
 Basis Dimension        Dim             ....  271

ORBITAL ENERGIES
----------------

  NO   OCC          E(Eh)            E(eV)
   0   2.0000     -19.052046      -518.4325
   1   2.0000     -19.048712      -518.3418
   2   2.0000     -14.426152      -392.5555
   3   2.0000     -10.240403      -278.6555
   4   2.0000     -10.225073      -278.2384
   5   2.0000     -10.169604      -276.7290
   6   2.0000     -10.156243      -276.3654
   7   2.0000      -1.010273       -27.4909
   8   2.0000      -0.994499       -27.0617
   9   2.0000      -0.921117       -25.0649
  10   2.0000      -0.792593       -21.5675
  11   2.0000      -0.700027       -19.0487
  12   2.0000      -0.618927       -16.8419
  13   2.0000      -0.577606       -15.7175
  14   2.0000      -0.560450       -15.2506
  15   2.0000      -0.507575       -13.8118
  16   2.0000      -0.469963       -12.7883
  17   2.0000      -0.469182       -12.7671
  18   2.0000      -0.423335       -11.5195
  19   2.0000      -0.412502       -11.2247
  20   2.0000      -0.405675       -11.0390
  21   2.0000      -0.376118       -10.2347
  22   2.0000      -0.363166        -9.8822
  23   2.0000      -0.352361        -9.5882
  24   2.0000      -0.330339        -8.9890
  25   2.0000      -0.244044        -6.6408
  26   2.0000      -0.232214        -6.3189
  27   2.0000      -0.224168        -6.0999
  28   0.0000       0.015541         0.4229
  29   0.0000       0.049357         1.3431
  30   0.0000       0.058183         1.5832
  31   0.0000       0.070416         1.9161
  32   0.0000       0.073748         2.0068

MULLIKEN ATOMIC CHARGES
-----------------------
   0 N :   -0.252366
   1 C :   -0.118475
   2 C :   -0.172127
   3 C :   -0.266802
   4 C :    0.248977
   5 O :   -0.587262
   6 O :   -0.568497
   7 H :    0.326941
   8 H :    0.326804
   9 H :    0.158235
  10 H :    0.158441
  11 H :    0.104868
  12 H :    0.102963
  13 H :    0.104660
  14 H :    0.102456
  15 H :    0.331184
Sum of atomic charges:   -0.0000000

LOEWDIN ATOMIC CHARGES
----------------------
   0 N :    0.192157
   1 C :   -0.234682
   2 C :   -0.267833
   3 C :   -0.252532
   4 C :   -0.679627
   5 O :   -0.155318
   6 O :   -0.135359
   7 H :    0.223714
   8 H :    0.223632
   9 H :    0.147350
  10 H :    0.147358
  11 H :    0.140691
  12 H :    0.140303
  13 H :    0.143891
  14 H :    0.142319
  15 H :    0.223935

  Mayer bond orders larger than 0.100000
B(  0-N ,  1-C ) :   0.8926 B(  0-N ,  7-H ) :   0.8774 B(  0-N ,  8-H ) :   0.8774
B(  0-N , 15-H ) :   0.8778 B(  1-C ,  2-C ) :   0.9631 B(  1-C ,  9-H ) :   0.9598
B(  1-C , 10-H ) :   0.9590 B(  2-C ,  3-C ) :   0.9467 B(  2-C , 11-H ) :   0.9637
B(  2-C , 12-H ) :   0.9630 B(  3-C ,  4-C ) :   0.9301 B(  3-C ,  6-O ) :  -0.1048
B(  3-C , 13-H ) :   0.9471 B(  3-C , 14-H ) :   0.9509 B(  4-C ,  5-O ) :   1.8366
B(  4-C ,  6-O ) :   1.8333

Dispersion correction           -0.017446751
FINAL SINGLE POINT ENERGY      -363.039909937932

DIPOLE MOMENT
-------------

Method             : SCF
Type of density    : Electron Density
Multiplicity       :   1
Irrep              :   0
Energy             :  -363.0224631871116685 Eh
Relativity type    :
Basis              : AO
                                X                 Y                 Z
Electronic contribution:      2.278955820       1.211459348      -3.890824773
Nuclear contribution   :     -9.562343948      -3.805423470      11.168726069
                        -----------------------------------------
Total Dipole Moment    :     -7.283388128      -2.593964121       7.277901297
                        -----------------------------------------
Magnitude (a.u.)       :     10.618109049
Magnitude (Debye)      :     26.989088344

Rotational constants in cm-1:             0.269172             0.034763             0.031488
Rotational constants in MHz :          8069.566070          1042.165445           943.994293

                             ****ORCA TERMINATED NORMALLY****
TOTAL RUN TIME: 0 days 0 hours 5 minutes 3 seconds 660 msec
