                         Program Version 6.0.1  -  RELEASE   -
|  1> ! SP B3LYP D4 def2-TZVP TightSCF CPCM(water)
|  2>
|  3> %maxcore 5000
|  4>
|  5> %pal
|  6> nprocs 20
|  7> end
|  8>
|  9> %geom
| 10>     MaxIter 500
| 11> end
| 12>
| 13> * xyz 0 1
| 14> N           -0.67850053314569        0.79209478257446       -0.35105856354545
| 15> C            0.41315684631128        1.74553597204525       -0.59153589452149
| 16> C            0.14258570844575        2.63450879420053       -1.80368354223938
| 17> C            0.46693873765022        1.99675704979485       -3.16564503858459
| 18> C           -0.61549913799997        1.08581460911131       -3.73108801424569
| 19> O           -1.10620807071833        1.35623804821548       -4.85055110334941
| 20> O           -0.97349325575285        0.08033506182701       -3.06441051452853
| 21> H           -0.46961155962726        0.22596929838113        0.50769967959912
| 22> H           -1.58802386542939        1.29170105625439       -0.21858299048701
| 23> H            0.52227087930948        2.36924319844273        0.29657626294330
| 24> H            1.34231765796547        1.19022058700715       -0.73115220904554
| 25> H            0.76627372419635        3.52399593279582       -1.71517308605585
| 26> H           -0.89850527134417        2.96342709274956       -1.78815662947918
| 27> H            1.38283756280803        1.40608205029295       -3.08609684647533
| 28> H            0.63040912406779        2.77916214175366       -3.90927043890394
| 29> H           -0.78276840316135        0.18247939935987       -1.17121465241870
| 30> O            0.18852059881755       -0.59021215399304        1.83407554003338
| 31> H            0.92290214159019       -0.96481992388721        1.30882282701202
| 32> H           -0.39852073464254       -1.33958976617796        2.04954062175763
| 33> O           -3.58734305836197       -0.10315126294638       -2.18222068411330
| 34> H           -4.14036713819007       -0.06014049125966       -2.96911493575886
| 35> H           -2.67465173952393       -0.01916180998851       -2.51635310631144
| 36> O           -3.69852333092264        0.41031002558628       -5.08742732978782
| 37> H           -4.16456981252217        0.89651103542674       -5.77206542022750
| 38> H           -2.79831731453850        0.79359891984708       -5.04319268038420
| 39> O           -3.22012241160656        1.84759269949817       -0.21505655609325
| 40> H           -3.55800089106777        1.25641099780970       -0.91165193925395
| 41> H           -3.40388106267548        1.37351573167497        0.61383378905907
| 42> H           -0.19991021284305       -1.43014280268534       -2.36574099648795
| 43> H            0.34058528343158       -2.87467080143886       -2.44842866981012
| 44> O            0.00270389643634       -2.20676225156876       -1.82111890639521
| 45> H            1.25332176648290       -1.83037852585527       -0.66942263824773
| 46> H            2.53685747984448       -2.31542204976408        0.06403574129212
| 47> O            1.93181935877610       -1.57443659895314       -0.00671656316870
| 48> O            1.03078676025235       -3.85552392579919       -3.74613514378798
| 49> H            0.86403628008081       -4.79984767527856       -3.81316140113419
| 50> H            0.69763354520853       -3.46589072421372       -4.58174141224448
| 51> O           -1.53275375367982       -2.72954563491401        2.13834542973903
| 52> H           -1.27059774825933       -3.64504959971243        2.25777242509092
| 53> H           -1.92767201652166       -2.66568629948179        1.25172821542178
| 54> H           -1.57389510993945       -2.16622844754940       -0.90728276205280
| 55> O           -2.41044344660418       -2.01750759329467       -0.42754579003192
| 56> H           -2.99230556589796       -1.56650093500126       -1.05734579513868
| 57> H           -1.04315404268265       -2.63658305736902       -5.46982362161528
| 58> O           -0.19821637288139       -2.80631644816744       -5.94113418596000
| 59> H            0.02804230884897       -1.95641580628387       -6.35096144297247
| 60> O           -2.30910379914445       -1.97301050216967       -4.44162952737793
| 61> H           -3.01741869740308       -1.47056949453262       -4.86696187471382
| 62> H           -1.79081675246177       -1.29684582890578       -3.96418487043813
| 63> O            0.75011242400213        2.07753277233664        2.62087965717303
| 64> H            0.61793680237835        1.12391565960315        2.48220566462736
| 65> H            0.18793715758893        2.32045659531161        3.36077679022497
| 66> H           -2.88546480987535       -0.81116692538705        0.91188929050146
| 67> H           -2.83618110576181       -0.61438347239783        2.43533377017427
| 68> O           -3.11385445758614       -0.18500172647343        1.62241737351735
| 69> H           -0.35866477334100        0.15874672268009       -7.78330275410689
| 70> H           -0.42770250657004        0.43690657237609       -6.26181906020053
| 71> O           -0.03217878084017       -0.14706529238876       -6.93131836517950
| 72> *
| 73>
| 74>                          ****END OF INPUT****

CARTESIAN COORDINATES (ANGSTROEM)
---------------------------------
  N     -0.678501    0.792095   -0.351059
  C      0.413157    1.745536   -0.591536
  C      0.142586    2.634509   -1.803684
  C      0.466939    1.996757   -3.165645
  C     -0.615499    1.085815   -3.731088
  O     -1.106208    1.356238   -4.850551
  O     -0.973493    0.080335   -3.064411
  H     -0.469612    0.225969    0.507700
  H     -1.588024    1.291701   -0.218583
  H      0.522271    2.369243    0.296576
  H      1.342318    1.190221   -0.731152
  H      0.766274    3.523996   -1.715173
  H     -0.898505    2.963427   -1.788157
  H      1.382838    1.406082   -3.086097
  H      0.630409    2.779162   -3.909270
  H     -0.782768    0.182479   -1.171215
  O      0.188521   -0.590212    1.834076
  H      0.922902   -0.964820    1.308823
  H     -0.398521   -1.339590    2.049541
  O     -3.587343   -0.103151   -2.182221
  H     -4.140367   -0.060140   -2.969115
  H     -2.674652   -0.019162   -2.516353
  O     -3.698523    0.410310   -5.087427
  H     -4.164570    0.896511   -5.772065
  H     -2.798317    0.793599   -5.043193
  O     -3.220122    1.847593   -0.215057
  H     -3.558001    1.256411   -0.911652
  H     -3.403881    1.373516    0.613834
  H     -0.199910   -1.430143   -2.365741
  H      0.340585   -2.874671   -2.448429
  O      0.002704   -2.206762   -1.821119
  H      1.253322   -1.830379   -0.669423
  H      2.536857   -2.315422    0.064036
  O      1.931819   -1.574437   -0.006717
  O      1.030787   -3.855524   -3.746135
  H      0.864036   -4.799848   -3.813161
  H      0.697634   -3.465891   -4.581741
  O     -1.532754   -2.729546    2.138345
  H     -1.270598   -3.645050    2.257772
  H     -1.927672   -2.665686    1.251728
  H     -1.573895   -2.166228   -0.907283
  O     -2.410443   -2.017508   -0.427546
  H     -2.992306   -1.566501   -1.057346
  H     -1.043154   -2.636583   -5.469824
  O     -0.198216   -2.806316   -5.941134
  H      0.028042   -1.956416   -6.350961
  O     -2.309104   -1.973011   -4.441630
  H     -3.017419   -1.470569   -4.866962
  H     -1.790817   -1.296846   -3.964185
  O      0.750112    2.077533    2.620880
  H      0.617937    1.123916    2.482206
  H      0.187937    2.320457    3.360777
  H     -2.885465   -0.811167    0.911889
  H     -2.836181   -0.614383    2.435334
  O     -3.113854   -0.185002    1.622417
  H     -0.358665    0.158747   -7.783303
  H     -0.427703    0.436907   -6.261819
  O     -0.032179   -0.147065   -6.931318

 Total Charge           Charge          ....    0
 Multiplicity           Mult            ....    1
 Number of Electrons    NEL             ....  196
 Basis Dimension        Dim             ....  873

ORBITAL ENERGIES
----------------

  NO   OCC          E(Eh)            E(eV)
   0   2.0000     -19.131942      -520.6066
   1   2.0000     -19.130995      -520.5808
   2   2.0000     -19.129882      -520.5506
   3   2.0000     -19.128326      -520.5082
   4   2.0000     -19.122542      -520.3508
   5   2.0000     -19.121574      -520.3245
   6   2.0000     -19.120318      -520.2903
   7   2.0000     -19.119324      -520.2632
   8   2.0000     -19.119263      -520.2616
   9   2.0000     -19.118754      -520.2478
  10   2.0000     -19.117995      -520.2271
  11   2.0000     -19.115518      -520.1597
  12   2.0000     -19.111202      -520.0423
  13   2.0000     -19.109734      -520.0023
  14   2.0000     -19.105788      -519.8949
  15   2.0000     -19.099766      -519.7311
  16   2.0000     -14.370359      -391.0373
  17   2.0000     -10.287385      -279.9340
  18   2.0000     -10.205785      -277.7135
  19   2.0000     -10.175787      -276.8972
  20   2.0000     -10.170855      -276.7630
  21   2.0000      -1.074884       -29.2491
  22   2.0000      -1.030638       -28.0451
  23   2.0000      -1.022986       -27.8369
  24   2.0000      -1.022037       -27.8110
  25   2.0000      -1.015310       -27.6280
  26   2.0000      -1.012549       -27.5529
  27   2.0000      -1.010866       -27.5071
  28   2.0000      -1.007547       -27.4167
  29   2.0000      -1.005777       -27.3686
  30   2.0000      -1.003774       -27.3141
  31   2.0000      -1.001078       -27.2407
  32   2.0000      -0.999998       -27.2113
  33   2.0000      -0.998482       -27.1701
  34   2.0000      -0.993520       -27.0351
  35   2.0000      -0.984360       -26.7858
  36   2.0000      -0.976532       -26.5728
  37   2.0000      -0.956439       -26.0260
  38   2.0000      -0.791208       -21.5299
  39   2.0000      -0.703979       -19.1562
  40   2.0000      -0.621242       -16.9049
  41   2.0000      -0.572627       -15.5820
  42   2.0000      -0.556240       -15.1361
  43   2.0000      -0.554125       -15.0785
  44   2.0000      -0.547768       -14.9055
  45   2.0000      -0.543056       -14.7773
  46   2.0000      -0.540025       -14.6948
  47   2.0000      -0.538953       -14.6656
  48   2.0000      -0.533352       -14.5132
  49   2.0000      -0.531588       -14.4653
  50   2.0000      -0.530491       -14.4354
  51   2.0000      -0.528795       -14.3893
  52   2.0000      -0.526613       -14.3299
  53   2.0000      -0.522040       -14.2054
  54   2.0000      -0.519737       -14.1428
  55   2.0000      -0.517520       -14.0824
  56   2.0000      -0.513614       -13.9762
  57   2.0000      -0.504343       -13.7239
  58   2.0000      -0.484455       -13.1827
  59   2.0000      -0.470710       -12.8087
  60   2.0000      -0.464504       -12.6398
  61   2.0000      -0.445386       -12.1196
  62   2.0000      -0.439031       -11.9467
  63   2.0000      -0.430541       -11.7156
  64   2.0000      -0.427280       -11.6269
  65   2.0000      -0.425770       -11.5858
  66   2.0000      -0.415104       -11.2956
  67   2.0000      -0.405569       -11.0361
  68   2.0000      -0.404871       -11.0171
  69   2.0000      -0.397005       -10.8030
  70   2.0000      -0.395171       -10.7531
  71   2.0000      -0.392104       -10.6697
  72   2.0000      -0.390130       -10.6160
  73   2.0000      -0.383186       -10.4270
  74   2.0000      -0.381347       -10.3770
  75   2.0000      -0.377716       -10.2782
  76   2.0000      -0.369653       -10.0588
  77   2.0000      -0.366367        -9.9694
  78   2.0000      -0.365069        -9.9340
  79   2.0000      -0.355725        -9.6798
  80   2.0000      -0.347557        -9.4575
  81   2.0000      -0.333007        -9.0616
  82   2.0000      -0.330585        -8.9957
  83   2.0000      -0.329404        -8.9635
  84   2.0000      -0.324472        -8.8293
  85   2.0000      -0.323893        -8.8136
  86   2.0000      -0.317723        -8.6457
  87   2.0000      -0.317332        -8.6350
  88   2.0000      -0.316861        -8.6222
  89   2.0000      -0.315410        -8.5827
  90   2.0000      -0.315130        -8.5751
  91   2.0000      -0.309368        -8.4183
  92   2.0000      -0.308352        -8.3907
  93   2.0000      -0.304656        -8.2901
  94   2.0000      -0.304161        -8.2766
  95   2.0000      -0.300216        -8.1693
  96   2.0000      -0.284870        -7.7517
  97   2.0000      -0.270166        -7.3516
  98   0.0000       0.002543         0.0692
  99   0.0000       0.009862         0.2684
 100   0.0000       0.025630         0.6974
 101   0.0000       0.038341         1.0433
 102   0.0000       0.047496         1.2924

MULLIKEN ATOMIC CHARGES
-----------------------
   0 N :   -0.282306
   1 C :   -0.148894
   2 C :   -0.188779
   3 C :   -0.146879
   4 C :    0.451531
   5 O :   -0.593301
   6 O :   -0.708249
   7 H :    0.306377
   8 H :    0.287550
   9 H :    0.152577
  10 H :    0.137569
  11 H :    0.128709
  12 H :    0.124387
  13 H :    0.123725
  14 H :    0.109066
  15 H :    0.264831
  16 O :   -0.738947
  17 H :    0.372915
  18 H :    0.366743
  19 O :   -0.708442
  20 H :    0.361261
  21 H :    0.360516
  22 O :   -0.729158
  23 H :    0.355841
  24 H :    0.345385
  25 O :   -0.702122
  26 H :    0.355999
  27 H :    0.365236
  28 H :    0.370319
  29 H :    0.368546
  30 O :   -0.728393
  31 H :    0.375633
  32 H :    0.357570
  33 O :   -0.726483
  34 O :   -0.728397
  35 H :    0.359868
  36 H :    0.366247
  37 O :   -0.715736
  38 H :    0.367324
  39 H :    0.367378
  40 H :    0.375247
  41 O :   -0.738053
  42 H :    0.362810
  43 H :    0.362320
  44 O :   -0.744283
  45 H :    0.360737
  46 O :   -0.717274
  47 H :    0.354677
  48 H :    0.346819
  49 O :   -0.718739
  50 H :    0.362727
  51 H :    0.349245
  52 H :    0.355621
  53 H :    0.355884
  54 O :   -0.711652
  55 H :    0.356952
  56 H :    0.350087
  57 O :   -0.720143
Sum of atomic charges:   -0.0000000

LOEWDIN ATOMIC CHARGES
----------------------
   0 N :    0.127145
   1 C :   -0.277692
   2 C :   -0.247618
   3 C :   -0.220888
   4 C :   -0.598999
   5 O :   -0.049381
   6 O :   -0.068383
   7 H :    0.170519
   8 H :    0.175895
   9 H :    0.138780
  10 H :    0.138788
  11 H :    0.150037
  12 H :    0.144336
  13 H :    0.153176
  14 H :    0.145835
  15 H :    0.174842
  16 O :   -0.273266
  17 H :    0.137302
  18 H :    0.137191
  19 O :   -0.269355
  20 H :    0.154475
  21 H :    0.137090
  22 O :   -0.315330
  23 H :    0.166795
  24 H :    0.140228
  25 O :   -0.295334
  26 H :    0.138739
  27 H :    0.146184
  28 H :    0.140722
  29 H :    0.140673
  30 O :   -0.259707
  31 H :    0.139499
  32 H :    0.166954
  33 O :   -0.304171
  34 O :   -0.308992
  35 H :    0.168649
  36 H :    0.137847
  37 O :   -0.289442
  38 H :    0.174024
  39 H :    0.149142
  40 H :    0.140694
  41 O :   -0.292168
  42 H :    0.144226
  43 H :    0.134643
  44 O :   -0.326205
  45 H :    0.138955
  46 O :   -0.297013
  47 H :    0.143772
  48 H :    0.132166
  49 O :   -0.338247
  50 H :    0.142766
  51 H :    0.163895
  52 H :    0.139723
  53 H :    0.158363
  54 O :   -0.302080
  55 H :    0.169587
  56 H :    0.144747
  57 O :   -0.314135

  Mayer bond orders larger than 0.100000
B(  0-N ,  1-C ) :   0.9123 B(  0-N ,  7-H ) :   0.7974 B(  0-N ,  8-H ) :   0.8010
B(  0-N , 15-H ) :   0.8785 B(  1-C ,  2-C ) :   0.9785 B(  1-C ,  9-H ) :   0.9560
B(  1-C , 10-H ) :   0.9603 B(  2-C ,  3-C ) :   0.9276 B(  2-C , 11-H ) :   0.9634
B(  2-C , 12-H ) :   0.9657 B(  3-C ,  4-C ) :   0.9710 B(  3-C , 13-H ) :   0.9529
B(  3-C , 14-H ) :   0.9706 B(  4-C ,  5-O ) :   1.6326 B(  4-C ,  6-O ) :   1.3703
B(  5-O , 24-H ) :   0.1166 B(  7-H , 16-O ) :   0.1578 B(  8-H , 25-O ) :   0.1615
B( 16-O , 17-H ) :   0.7995 B( 16-O , 18-H ) :   0.8122 B( 17-H , 33-O ) :   0.1040
B( 19-O , 20-H ) :   0.8561 B( 19-O , 21-H ) :   0.8125 B( 22-O , 23-H ) :   0.8778
B( 22-O , 24-H ) :   0.7992 B( 25-O , 26-H ) :   0.8339 B( 25-O , 27-H ) :   0.8415
B( 28-H , 30-O ) :   0.8246 B( 29-H , 30-O ) :   0.7929 B( 29-H , 34-O ) :   0.1231
B( 31-H , 33-O ) :   0.7991 B( 32-H , 33-O ) :   0.8768 B( 34-O , 35-H ) :   0.8761
B( 34-O , 36-H ) :   0.7972 B( 36-H , 44-O ) :   0.1231 B( 37-O , 38-H ) :   0.8691
B( 37-O , 39-H ) :   0.8333 B( 40-H , 41-O ) :   0.8097 B( 41-O , 42-H ) :   0.8341
B( 43-H , 44-O ) :   0.8129 B( 43-H , 46-O ) :   0.1014 B( 44-O , 45-H ) :   0.8408
B( 46-O , 47-H ) :   0.8491 B( 46-O , 48-H ) :   0.8273 B( 49-O , 50-H ) :   0.8428
B( 49-O , 51-H ) :   0.8848 B( 52-H , 54-O ) :   0.8351 B( 53-H , 54-O ) :   0.8750
B( 55-H , 57-O ) :   0.8771 B( 56-H , 57-O ) :   0.8245

Dispersion correction           -0.072536729
FINAL SINGLE POINT ENERGY     -1433.318885640994

DIPOLE MOMENT
-------------

Method             : SCF
Type of density    : Electron Density
Multiplicity       :   1
Irrep              :   0
Energy             : -1433.2463489121087150 Eh
Relativity type    :
Basis              : AO
                                X                 Y                 Z
Electronic contribution:     -1.185163833       1.472546031      -5.188002137
Nuclear contribution   :      1.169256676      -1.988122096       6.294360015
                        -----------------------------------------
Total Dipole Moment    :     -0.015907157      -0.515576065       1.106357878
                        -----------------------------------------
Magnitude (a.u.)       :      1.220696305
Magnitude (Debye)      :      3.102763428

Rotational constants in cm-1:             0.008003             0.004632             0.004277
Rotational constants in MHz :           239.936238           138.867852           128.228081

                             ****ORCA TERMINATED NORMALLY****
TOTAL RUN TIME: 0 days 0 hours 0 minutes 45 seconds 841 msec
