                         Program Version 6.0.1  -  RELEASE   -
|  1> ! Opt B3LYP D4 def2-TZVP TightSCF TightOpt CPCM(water)
|  2>
|  3> %maxcore 5000
|  4>
|  5> %pal
|  6> nprocs 6
|  7> end
|  8>
|  9> * xyz 0 1
| 10> C         -0.03670        0.72550       -2.96510
| 11> C         -0.81390        0.35210       -4.19420
| 12> O         -1.02240       -0.94420       -4.49520
| 13> O         -1.26870        1.22070       -4.92140
| 14> C          1.39150        0.17060       -3.03250
| 15> N          2.14960        0.53270       -1.83530
| 16> H         -0.55840        0.31470       -2.07410
| 17> H          0.00550        1.83310       -2.87030
| 18> H          1.90610        0.58070       -3.93030
| 19> H          1.35880       -0.93830       -3.12200
| 20> H          2.21140        1.57330       -1.74930
| 21> H          1.68940        0.13500       -0.98430
| 22> H          3.11640        0.14180       -1.91090
| 23> *
| 24>
| 25>                          ****END OF INPUT****
 Total Charge           Charge          ....    0
 Multiplicity           Mult            ....    1
 Number of Electrons    NEL             ....   48
Dispersion correction           -0.013398807
FINAL SINGLE POINT ENERGY      -323.721900756094
Dispersion correction             ... done (  0.0 sec)
Dispersion correction           -0.013432119
FINAL SINGLE POINT ENERGY      -323.733630459161
Dispersion correction             ... done (  0.0 sec)
Dispersion correction           -0.013408071
FINAL SINGLE POINT ENERGY      -323.734367597306
Dispersion correction             ... done (  0.0 sec)
FINAL SINGLE POINT ENERGY      -323.735341980785
FINAL SINGLE POINT ENERGY      -323.736483477377
FINAL SINGLE POINT ENERGY      -323.736819029136
FINAL SINGLE POINT ENERGY      -323.736883216899
FINAL SINGLE POINT ENERGY      -323.737013894965
FINAL SINGLE POINT ENERGY      -323.737102509675
FINAL SINGLE POINT ENERGY      -323.737219928649
FINAL SINGLE POINT ENERGY      -323.737746475477
FINAL SINGLE POINT ENERGY      -323.737833626209
FINAL SINGLE POINT ENERGY      -323.737877488479
FINAL SINGLE POINT ENERGY      -323.737883634883
FINAL SINGLE POINT ENERGY      -323.737885293393
FINAL SINGLE POINT ENERGY      -323.737885521000
FINAL SINGLE POINT ENERGY      -323.737884980505
Dispersion correction             ... done (  0.0 sec)
Dispersion correction           -0.013375962
FINAL SINGLE POINT ENERGY      -323.737885518100
Dispersion correction             ... done (  0.0 sec)
Dispersion correction           -0.013376023
FINAL SINGLE POINT ENERGY      -323.737885654481
Dispersion correction             ... done (  0.0 sec)
                    ***********************HURRAY********************

CARTESIAN COORDINATES (ANGSTROEM)
---------------------------------
  C      0.010975    0.766087   -3.047911
  C     -0.860911    0.351139   -4.254806
  O     -0.412638   -0.544790   -5.011813
  O     -1.956167    0.953090   -4.366285
  C      1.356372    0.072773   -3.013171
  N      2.148738    0.517249   -1.811538
  H     -0.551746    0.544523   -2.136116
  H      0.143804    1.850938   -3.079376
  H      1.960488    0.309474   -3.885256
  H      1.258024   -1.006588   -2.936641
  H      2.307574    1.526386   -1.822959
  H      1.661608    0.294805   -0.941452
  H      3.062479    0.062612   -1.777575

 Multiplicity           Mult            ....    1
 Number of Electrons    NEL             ....   48
 Basis Dimension        Dim             ....  228

ORBITAL ENERGIES
----------------

  NO   OCC          E(Eh)            E(eV)
   0   2.0000     -19.057101      -518.5701
   1   2.0000     -19.054059      -518.4873
   2   2.0000     -14.424445      -392.5091
   3   2.0000     -10.247920      -278.8601
   4   2.0000     -10.221954      -278.1535
   5   2.0000     -10.167086      -276.6605
   6   2.0000      -1.016904       -27.6714
   7   2.0000      -0.992300       -27.0019
   8   2.0000      -0.928253       -25.2591
   9   2.0000      -0.770383       -20.9632
  10   2.0000      -0.653636       -17.7863
  11   2.0000      -0.575865       -15.6701
  12   2.0000      -0.571255       -15.5446
  13   2.0000      -0.496422       -13.5083
  14   2.0000      -0.479169       -13.0388
  15   2.0000      -0.458086       -12.4651
  16   2.0000      -0.420353       -11.4384
  17   2.0000      -0.408469       -11.1150
  18   2.0000      -0.390273       -10.6199
  19   2.0000      -0.371735       -10.1154
  20   2.0000      -0.344837        -9.3835
  21   2.0000      -0.249029        -6.7764
  22   2.0000      -0.238085        -6.4786
  23   2.0000      -0.230755        -6.2792
  24   0.0000       0.015454         0.4205
  25   0.0000       0.053514         1.4562
  26   0.0000       0.061468         1.6726
  27   0.0000       0.075614         2.0576
  28   0.0000       0.081059         2.2057

MULLIKEN ATOMIC CHARGES
-----------------------
   0 C :   -0.266100
   1 C :    0.246471
   2 O :   -0.563620
   3 O :   -0.574451
   4 C :   -0.102852
   5 N :   -0.253819
   6 H :    0.121193
   7 H :    0.118990
   8 H :    0.147621
   9 H :    0.145085
  10 H :    0.325960
  11 H :    0.325666
  12 H :    0.329857
Sum of atomic charges:    0.0000000

LOEWDIN ATOMIC CHARGES
----------------------
   0 C :   -0.257285
   1 C :   -0.677218
   2 O :   -0.125821
   3 O :   -0.139487
   4 C :   -0.241401
   5 N :    0.189778
   6 H :    0.147985
   7 H :    0.146479
   8 H :    0.144700
   9 H :    0.144030
  10 H :    0.222611
  11 H :    0.222604
  12 H :    0.223026

  Mayer bond orders larger than 0.100000
B(  0-C ,  1-C ) :   0.9289 B(  0-C ,  4-C ) :   0.9491 B(  0-C ,  6-H ) :   0.9469
B(  0-C ,  7-H ) :   0.9501 B(  1-C ,  2-O ) :   1.8087 B(  1-C ,  3-O ) :   1.8380
B(  4-C ,  5-N ) :   0.8751 B(  4-C ,  8-H ) :   0.9603 B(  4-C ,  9-H ) :   0.9592
B(  5-N , 10-H ) :   0.8787 B(  5-N , 11-H ) :   0.8789 B(  5-N , 12-H ) :   0.8779

Dispersion correction           -0.013375985
FINAL SINGLE POINT ENERGY      -323.737885663134

DIPOLE MOMENT
-------------

Method             : SCF
Type of density    : Electron Density
Multiplicity       :   1
Irrep              :   0
Energy             :  -323.7245096784376415 Eh
Relativity type    :
Basis              : AO
                                X                 Y                 Z
Electronic contribution:     -2.330409767      -0.335724565      -2.165667942
Nuclear contribution   :      8.602689986       1.021823334       7.716428893
                        -----------------------------------------
Total Dipole Moment    :      6.272280219       0.686098769       5.550760951
                        -----------------------------------------
Magnitude (a.u.)       :      8.403759742
Magnitude (Debye)      :     21.360659704

Rotational constants in cm-1:             0.306809             0.061318             0.052549
Rotational constants in MHz :          9197.888447          1838.276487          1575.390341

                             ****ORCA TERMINATED NORMALLY****
TOTAL RUN TIME: 0 days 0 hours 5 minutes 23 seconds 39 msec
