                         Program Version 6.0.1  -  RELEASE   -
|  1> ! SP B3LYP D4 def2-TZVP TightSCF CPCM(water)
|  2>
|  3> %maxcore 5000
|  4>
|  5> %pal
|  6> nprocs 30
|  7> end
|  8>
|  9> %geom
| 10>     MaxIter 500
| 11> end
| 12>
| 13> * xyz 0 1
| 14> N           -0.60624208623108       -0.07038768740813        2.61779034356506
| 15> C           -1.12363857719648       -0.46494171308769        1.30167160544046
| 16> C           -0.46115143649218        0.34163711122745        0.19182138532505
| 17> C           -0.84160635497570       -0.21723571656020       -1.17316177100070
| 18> C           -0.09544420049474        0.40853737944184       -2.33142058957238
| 19> O            0.84922426153757        1.20774139071620       -2.11795563449569
| 20> O           -0.46682556211610        0.11544106456384       -3.50070496627333
| 21> H            0.42253527310690       -0.21407857981904        2.61093202702617
| 22> H           -0.81698322881158        0.91962205817293        2.82923517772714
| 23> H           -2.20304685893737       -0.32985238309295        1.26284233750033
| 24> H           -0.89442969034039       -1.51620650789796        1.14932674449952
| 25> H            0.62070683385611        0.28190424694163        0.29435809732139
| 26> H           -0.75910670475907        1.38717608207950        0.25577346814278
| 27> H           -1.90736417744609       -0.10901768053352       -1.36916371215748
| 28> H           -0.62300429187772       -1.28501580858022       -1.21897913767332
| 29> H           -0.99073730398029       -0.68430732542489        3.36337486397463
| 30> *
| 31>
| 32>                          ****END OF INPUT****

CARTESIAN COORDINATES (ANGSTROEM)
---------------------------------
  N     -0.606242   -0.070388    2.617790
  C     -1.123639   -0.464942    1.301672
  C     -0.461151    0.341637    0.191821
  C     -0.841606   -0.217236   -1.173162
  C     -0.095444    0.408537   -2.331421
  O      0.849224    1.207741   -2.117956
  O     -0.466826    0.115441   -3.500705
  H      0.422535   -0.214079    2.610932
  H     -0.816983    0.919622    2.829235
  H     -2.203047   -0.329852    1.262842
  H     -0.894430   -1.516207    1.149327
  H      0.620707    0.281904    0.294358
  H     -0.759107    1.387176    0.255773
  H     -1.907364   -0.109018   -1.369164
  H     -0.623004   -1.285016   -1.218979
  H     -0.990737   -0.684307    3.363375

 Total Charge           Charge          ....    0
 Multiplicity           Mult            ....    1
 Number of Electrons    NEL             ....   56
 Basis Dimension        Dim             ....  271

ORBITAL ENERGIES
----------------

  NO   OCC          E(Eh)            E(eV)
   0   2.0000     -19.047430      -518.3069
   1   2.0000     -19.043619      -518.2032
   2   2.0000     -14.431387      -392.6980
   3   2.0000     -10.236323      -278.5445
   4   2.0000     -10.221082      -278.1298
   5   2.0000     -10.168475      -276.6983
   6   2.0000     -10.156551      -276.3738
   7   2.0000      -1.010369       -27.4935
   8   2.0000      -0.997624       -27.1467
   9   2.0000      -0.912954       -24.8427
  10   2.0000      -0.793449       -21.5908
  11   2.0000      -0.702874       -19.1262
  12   2.0000      -0.620788       -16.8925
  13   2.0000      -0.582037       -15.8380
  14   2.0000      -0.561119       -15.2688
  15   2.0000      -0.511449       -13.9172
  16   2.0000      -0.471769       -12.8375
  17   2.0000      -0.471271       -12.8239
  18   2.0000      -0.421760       -11.4767
  19   2.0000      -0.413636       -11.2556
  20   2.0000      -0.403994       -10.9932
  21   2.0000      -0.369787       -10.0624
  22   2.0000      -0.362903        -9.8751
  23   2.0000      -0.350507        -9.5378
  24   2.0000      -0.332283        -9.0419
  25   2.0000      -0.239313        -6.5120
  26   2.0000      -0.236449        -6.4341
  27   2.0000      -0.215746        -5.8707
  28   0.0000       0.012966         0.3528
  29   0.0000       0.050063         1.3623
  30   0.0000       0.056611         1.5405
  31   0.0000       0.067635         1.8404
  32   0.0000       0.071642         1.9495

MULLIKEN ATOMIC CHARGES
-----------------------
   0 N :   -0.249720
   1 C :   -0.127891
   2 C :   -0.180037
   3 C :   -0.243902
   4 C :    0.228279
   5 O :   -0.572089
   6 O :   -0.597113
   7 H :    0.333344
   8 H :    0.335164
   9 H :    0.157222
  10 H :    0.156530
  11 H :    0.100460
  12 H :    0.109521
  13 H :    0.105415
  14 H :    0.106033
  15 H :    0.338784
Sum of atomic charges:   -0.0000000

LOEWDIN ATOMIC CHARGES
----------------------
   0 N :    0.187003
   1 C :   -0.257903
   2 C :   -0.261298
   3 C :   -0.249067
   4 C :   -0.687650
   5 O :   -0.138817
   6 O :   -0.164938
   7 H :    0.236019
   8 H :    0.232440
   9 H :    0.147656
  10 H :    0.148835
  11 H :    0.139807
  12 H :    0.139705
  13 H :    0.143919
  14 H :    0.148698
  15 H :    0.235589

  Mayer bond orders larger than 0.100000
B(  0-N ,  1-C ) :   0.9112 B(  0-N ,  7-H ) :   0.8712 B(  0-N ,  8-H ) :   0.8694
B(  0-N , 15-H ) :   0.8700 B(  1-C ,  2-C ) :   0.9556 B(  1-C ,  9-H ) :   0.9580
B(  1-C , 10-H ) :   0.9649 B(  2-C ,  3-C ) :   0.9487 B(  2-C , 11-H ) :   0.9680
B(  2-C , 12-H ) :   0.9595 B(  3-C ,  4-C ) :   0.9340 B(  3-C ,  5-O ) :  -0.1050
B(  3-C , 13-H ) :   0.9496 B(  3-C , 14-H ) :   0.9410 B(  4-C ,  5-O ) :   1.8404
B(  4-C ,  6-O ) :   1.8493

Dispersion correction           -0.017583176
FINAL SINGLE POINT ENERGY      -363.035261524108

DIPOLE MOMENT
-------------

Method             : SCF
Type of density    : Electron Density
Multiplicity       :   1
Irrep              :   0
Energy             :  -363.0176783482432370 Eh
Relativity type    :
Basis              : AO
                                X                 Y                 Z
Electronic contribution:      1.611067802       1.329275275      -3.795548436
Nuclear contribution   :     -3.428676720      -3.033003979      14.143281876
                        -----------------------------------------
Total Dipole Moment    :     -1.817608918      -1.703728704      10.347733439
                        -----------------------------------------
Magnitude (a.u.)       :     10.643400820
Magnitude (Debye)      :     27.053374917

Rotational constants in cm-1:             0.273134             0.035353             0.032093
Rotational constants in MHz :          8188.351247          1059.847247           962.111550

                             ****ORCA TERMINATED NORMALLY****
TOTAL RUN TIME: 0 days 0 hours 0 minutes 14 seconds 956 msec
