                         Program Version 6.0.1  -  RELEASE   -
|  1> ! Opt B3LYP D4 def2-TZVP TightSCF TightOpt CPCM(water)
|  2>
|  3> %maxcore 5000
|  4>
|  5> %pal
|  6> nprocs 6
|  7> end
|  8>
|  9> * xyz 0 1
| 10> N          0.59830        0.70120        0.63310
| 11> C          0.84240        1.92740       -0.12830
| 12> C          0.56610        1.74850       -1.63420
| 13> C          1.41690        0.68250       -2.35020
| 14> C          2.89080        0.98680       -2.34870
| 15> O          3.53250        1.19690       -3.51400
| 16> O          3.52190        1.01120       -1.30460
| 17> H          0.72880        0.90270        1.65080
| 18> H         -0.38100        0.36850        0.47840
| 19> H          0.16430        2.72450        0.24970
| 20> H          1.88140        2.27770        0.04440
| 21> H          0.72340        2.72650       -2.13940
| 22> H         -0.50410        1.47380       -1.75900
| 23> H          1.24380       -0.32090       -1.90880
| 24> H          1.07250        0.64090       -3.40650
| 25> H          1.27730       -0.04390        0.35930
| 26> *
| 27>
| 28>                          ****END OF INPUT****
 Total Charge           Charge          ....    0
 Multiplicity           Mult            ....    1
 Number of Electrons    NEL             ....   56
Dispersion correction           -0.019150773
FINAL SINGLE POINT ENERGY      -363.024404756749
Dispersion correction             ... done (  0.0 sec)
Dispersion correction           -0.019421957
FINAL SINGLE POINT ENERGY      -363.036483426043
Dispersion correction             ... done (  0.0 sec)
Dispersion correction           -0.019541531
FINAL SINGLE POINT ENERGY      -363.039012718864
Dispersion correction             ... done (  0.0 sec)
FINAL SINGLE POINT ENERGY      -363.041474849073
FINAL SINGLE POINT ENERGY      -363.044281668222
FINAL SINGLE POINT ENERGY      -363.046645996064
FINAL SINGLE POINT ENERGY      -363.047095105954
FINAL SINGLE POINT ENERGY      -363.045907137222
FINAL SINGLE POINT ENERGY      -363.046067823263
FINAL SINGLE POINT ENERGY      -363.048496625245
FINAL SINGLE POINT ENERGY      -363.048983072126
FINAL SINGLE POINT ENERGY      -363.049096611798
FINAL SINGLE POINT ENERGY      -363.049121084748
FINAL SINGLE POINT ENERGY      -363.049129928088
FINAL SINGLE POINT ENERGY      -363.049131229033
FINAL SINGLE POINT ENERGY      -363.049132114997
Dispersion correction             ... done (  0.0 sec)
Dispersion correction           -0.020306390
FINAL SINGLE POINT ENERGY      -363.049132424848
Dispersion correction             ... done (  0.0 sec)
Dispersion correction           -0.020306794
FINAL SINGLE POINT ENERGY      -363.049132514133
Dispersion correction             ... done (  0.0 sec)
                    ***********************HURRAY********************

CARTESIAN COORDINATES (ANGSTROEM)
---------------------------------
  N      0.943960    0.752345    0.505558
  C      0.734008    2.047065   -0.213139
  C      0.453897    1.825340   -1.697870
  C      1.278741    0.716463   -2.384783
  C      2.779882    0.734782   -2.057020
  O      3.582790    1.145289   -2.915052
  O      3.104924    0.312799   -0.895046
  H      1.086968    0.898911    1.503272
  H      0.155459    0.116586    0.394606
  H     -0.084100    2.582512    0.264462
  H      1.651740    2.613668   -0.065565
  H      0.630891    2.780496   -2.196728
  H     -0.604582    1.591661   -1.834632
  H      0.882880   -0.259230   -2.089907
  H      1.143816    0.809383   -3.461812
  H      1.834025    0.336233    0.065656

 Multiplicity           Mult            ....    1
 Number of Electrons    NEL             ....   56
 Basis Dimension        Dim             ....  271

ORBITAL ENERGIES
----------------

  NO   OCC          E(Eh)            E(eV)
   0   2.0000     -19.074106      -519.0328
   1   2.0000     -19.067228      -518.8457
   2   2.0000     -14.392271      -391.6336
   3   2.0000     -10.256893      -279.1042
   4   2.0000     -10.217438      -278.0306
   5   2.0000     -10.177080      -276.9324
   6   2.0000     -10.163221      -276.5553
   7   2.0000      -1.030850       -28.0509
   8   2.0000      -0.970470       -26.4078
   9   2.0000      -0.938922       -25.5494
  10   2.0000      -0.787711       -21.4347
  11   2.0000      -0.702484       -19.1156
  12   2.0000      -0.612613       -16.6701
  13   2.0000      -0.561346       -15.2750
  14   2.0000      -0.553525       -15.0622
  15   2.0000      -0.504408       -13.7256
  16   2.0000      -0.476114       -12.9557
  17   2.0000      -0.448637       -12.2080
  18   2.0000      -0.437739       -11.9115
  19   2.0000      -0.427202       -11.6248
  20   2.0000      -0.402959       -10.9651
  21   2.0000      -0.396901       -10.8002
  22   2.0000      -0.362018        -9.8510
  23   2.0000      -0.347527        -9.4567
  24   2.0000      -0.343184        -9.3385
  25   2.0000      -0.263700        -7.1757
  26   2.0000      -0.253222        -6.8905
  27   2.0000      -0.239247        -6.5102
  28   0.0000       0.023008         0.6261
  29   0.0000       0.039677         1.0797
  30   0.0000       0.065325         1.7776
  31   0.0000       0.075767         2.0617
  32   0.0000       0.083491         2.2719

MULLIKEN ATOMIC CHARGES
-----------------------
   0 N :   -0.283659
   1 C :   -0.150602
   2 C :   -0.193778
   3 C :   -0.240915
   4 C :    0.275323
   5 O :   -0.529600
   6 O :   -0.572910
   7 H :    0.310246
   8 H :    0.305283
   9 H :    0.154718
  10 H :    0.152806
  11 H :    0.120324
  12 H :    0.123079
  13 H :    0.115912
  14 H :    0.099954
  15 H :    0.313819
Sum of atomic charges:   -0.0000000

LOEWDIN ATOMIC CHARGES
----------------------
   0 N :    0.148839
   1 C :   -0.251472
   2 C :   -0.254734
   3 C :   -0.244995
   4 C :   -0.646944
   5 O :   -0.096541
   6 O :   -0.120639
   7 H :    0.209487
   8 H :    0.209240
   9 H :    0.142064
  10 H :    0.144144
  11 H :    0.148641
  12 H :    0.143846
  13 H :    0.142757
  14 H :    0.140134
  15 H :    0.186174

  Mayer bond orders larger than 0.100000
B(  0-N ,  1-C ) :   0.9048 B(  0-N ,  7-H ) :   0.8862 B(  0-N ,  8-H ) :   0.8848
B(  0-N , 15-H ) :   0.7414 B(  1-C ,  2-C ) :   0.9872 B(  1-C ,  9-H ) :   0.9622
B(  1-C , 10-H ) :   0.9635 B(  2-C ,  3-C ) :   0.9519 B(  2-C , 11-H ) :   0.9641
B(  2-C , 12-H ) :   0.9593 B(  3-C ,  4-C ) :   0.9432 B(  3-C , 13-H ) :   0.9448
B(  3-C , 14-H ) :   0.9560 B(  4-C ,  5-O ) :   1.9005 B(  4-C ,  6-O ) :   1.5868
B(  6-O , 15-H ) :   0.2183

Dispersion correction           -0.020306994
FINAL SINGLE POINT ENERGY      -363.049132538283

DIPOLE MOMENT
-------------

Method             : SCF
Type of density    : Electron Density
Multiplicity       :   1
Irrep              :   0
Energy             :  -363.0288255443546177 Eh
Relativity type    :
Basis              : AO
                                X                 Y                 Z
Electronic contribution:      4.554280558      -1.531198606      -0.785675912
Nuclear contribution   :     -9.233562957       1.794296870       4.303053827
                        -----------------------------------------
Total Dipole Moment    :     -4.679282399       0.263098263       3.517377915
                        -----------------------------------------
Magnitude (a.u.)       :      5.859765512
Magnitude (Debye)      :     14.894340260

Rotational constants in cm-1:             0.143083             0.066012             0.052562
Rotational constants in MHz :          4289.525637          1978.983560          1575.774087

                             ****ORCA TERMINATED NORMALLY****
TOTAL RUN TIME: 0 days 0 hours 6 minutes 49 seconds 541 msec
